REMARK SMILES O=C(Nc1c(Cl)cncc1Cl)c1ccc(OC(F)F)c(OCC2CC2)c1
REMARK SMILES IDX 12 1 13 2 14 3 15 4 20 5 26 6 2 7 1 8 3 9 4 11 10 12 5 13
REMARK SMILES IDX 9 14 7 15 8 16 11 17 6 18 21 19 22 20 23 21 24 22 25 23
REMARK SMILES IDX 16 24 17 25 19 26 18 27
REMARK H PARENT 3 10
ROOT
ATOM      1  C   UNL     1       2.123   0.712  42.001  1.00  0.00    +0.044 A 
ATOM      2  C   UNL     1       0.983   1.052  42.743  1.00  0.00    +0.018 A 
ATOM      3  C   UNL     1      -0.292   1.000  42.192  1.00  0.00    +0.051 A 
ATOM      4  C   UNL     1      -0.475   0.598  40.868  1.00  0.00    +0.168 A 
ATOM      5  C   UNL     1       0.730   0.232  40.071  1.00  0.00    +0.162 A 
ATOM      6  C   UNL     1       1.984   0.308  40.686  1.00  0.00    +0.064 A 
ENDROOT
BRANCH   1   7
ATOM      7  C   UNL     1       3.520   0.762  42.587  1.00  0.00    +0.255 C 
ATOM      8  O   UNL     1       4.428   0.365  41.885  1.00  0.00    -0.269 OA
ATOM      9  N   UNL     1       3.729   1.244  43.822  1.00  0.00    -0.319 N 
ATOM     10  H   UNL     1       2.952   1.498  44.371  1.00  0.00    +0.170 HD
BRANCH   9  11
ATOM     11  C   UNL     1       4.974   1.393  44.339  1.00  0.00    +0.082 A 
ATOM     12  C   UNL     1       5.354   0.645  45.571  1.00  0.00    +0.084 A 
ATOM     13  C   UNL     1       6.047   2.267  43.788  1.00  0.00    +0.084 A 
ATOM     14  C   UNL     1       6.624   0.791  46.117  1.00  0.00    +0.133 A 
ATOM     15  C   UNL     1       7.280   2.321  44.427  1.00  0.00    +0.133 A 
ATOM     16  N   UNL     1       7.527   1.606  45.545  1.00  0.00    -0.261 NA
ATOM     17 Cl   UNL     1       4.239  -0.406  46.336  1.00  0.00    -0.080 Cl
ATOM     18 Cl   UNL     1       5.789   3.247  42.406  1.00  0.00    -0.080 Cl
ENDBRANCH   9  11
ENDBRANCH   1   7
BRANCH   5  19
ATOM     19  O   UNL     1       0.584  -0.142  38.753  1.00  0.00    -0.489 OA
BRANCH  19  20
ATOM     20  C   UNL     1       1.479  -1.057  38.115  1.00  0.00    +0.233 C 
BRANCH  20  21
ATOM     21  C   UNL     1       1.429  -0.894  36.628  1.00  0.00    +0.027 C 
ATOM     22  C   UNL     1       2.391  -0.514  35.547  1.00  0.00    +0.007 C 
ATOM     23  C   UNL     1       1.016   0.190  35.683  1.00  0.00    +0.007 C 
ENDBRANCH  20  21
ENDBRANCH  19  20
ENDBRANCH   5  19
BRANCH   4  24
ATOM     24  O   UNL     1      -1.708   0.538  40.243  1.00  0.00    -0.431 OA
BRANCH  24  25
ATOM     25  C   UNL     1      -2.962   0.727  40.887  1.00  0.00    +0.542 C 
ATOM     26  F   UNL     1      -3.050   2.024  41.306  1.00  0.00    -0.167 F 
ATOM     27  F   UNL     1      -3.024  -0.150  41.938  1.00  0.00    -0.167 F 
ENDBRANCH  24  25
ENDBRANCH   4  24
TORSDOF 7
