REMARK SMILES CCOc1cc([C@@H](CS(C)(=O)=O)N2C(=O)c3cccc(NC(C)=O)c3C2=O)ccc1OC
REMARK SMILES IDX 6 1 5 2 4 3 30 4 29 5 28 6 7 7 13 8 20 9 19 10 25 11 18 12
REMARK SMILES IDX 16 13 26 14 17 15 14 16 27 17 15 18 21 19 22 20 24 21 23 23
REMARK SMILES IDX 8 24 9 25 11 26 12 27 10 28 3 29 2 30 1 31 31 32 32 33
REMARK H PARENT 21 22
ROOT
ATOM      1  C   UNL     1      82.631 158.413  25.481  1.00  0.00    -0.020 A 
ATOM      2  C   UNL     1      83.464 157.422  24.964  1.00  0.00    +0.056 A 
ATOM      3  C   UNL     1      83.439 157.114  23.609  1.00  0.00    +0.161 A 
ATOM      4  C   UNL     1      82.605 157.838  22.736  1.00  0.00    +0.160 A 
ATOM      5  C   UNL     1      81.787 158.832  23.245  1.00  0.00    +0.051 A 
ATOM      6  C   UNL     1      81.809 159.136  24.609  1.00  0.00    +0.010 A 
ENDROOT
BRANCH   1   7
ATOM      7  C   UNL     1      82.682 158.775  26.957  1.00  0.00    +0.139 C 
BRANCH   7   8
ATOM      8  N   UNL     1      83.578 157.917  27.740  1.00  0.00    -0.266 N 
ATOM      9  C   UNL     1      86.670 157.043  29.510  1.00  0.00    +0.054 A 
ATOM     10  C   UNL     1      86.915 155.831  30.148  1.00  0.00    +0.027 A 
ATOM     11  C   UNL     1      85.412 157.212  28.922  1.00  0.00    +0.076 A 
ATOM     12  C   UNL     1      85.956 154.832  30.212  1.00  0.00    +0.003 A 
ATOM     13  C   UNL     1      84.468 156.192  28.987  1.00  0.00    +0.055 A 
ATOM     14  C   UNL     1      84.840 158.348  28.157  1.00  0.00    +0.264 C 
ATOM     15  C   UNL     1      84.701 154.991  29.631  1.00  0.00    +0.015 A 
ATOM     16  C   UNL     1      83.256 156.652  28.251  1.00  0.00    +0.262 C 
ATOM     17  O   UNL     1      85.291 159.451  27.952  1.00  0.00    -0.268 OA
ATOM     18  O   UNL     1      82.208 156.063  28.075  1.00  0.00    -0.269 OA
BRANCH   9  19
ATOM     19  N   UNL     1      87.630 158.083  29.410  1.00  0.00    -0.326 N 
ATOM     20  C   UNL     1      88.983 157.960  29.422  1.00  0.00    +0.221 C 
ATOM     21  O   UNL     1      89.556 156.877  29.434  1.00  0.00    -0.275 OA
ATOM     22  H   UNL     1      87.276 158.997  29.322  1.00  0.00    +0.169 HD
ATOM     23  C   UNL     1      89.737 159.255  29.389  1.00  0.00    +0.114 C 
ENDBRANCH   9  19
ENDBRANCH   7   8
BRANCH   7  24
ATOM     24  C   UNL     1      81.308 158.864  27.645  1.00  0.00    +0.167 C 
BRANCH  24  25
ATOM     25  S   UNL     1      81.559 159.726  29.187  1.00  0.00    +0.149 S 
ATOM     26  O   UNL     1      82.074 161.027  28.928  1.00  0.00    -0.229 OA
ATOM     27  O   UNL     1      82.314 158.899  30.090  1.00  0.00    -0.229 OA
ATOM     28  C   UNL     1      79.954 159.963  29.849  1.00  0.00    +0.158 C 
ENDBRANCH  24  25
ENDBRANCH   7  24
ENDBRANCH   1   7
BRANCH   3  29
ATOM     29  O   UNL     1      84.198 156.147  23.028  1.00  0.00    -0.490 OA
BRANCH  29  30
ATOM     30  C   UNL     1      85.010 155.345  23.897  1.00  0.00    +0.226 C 
ATOM     31  C   UNL     1      85.754 154.395  22.998  1.00  0.00    +0.049 C 
ENDBRANCH  29  30
ENDBRANCH   3  29
BRANCH   4  32
ATOM     32  O   UNL     1      82.643 157.437  21.426  1.00  0.00    -0.493 OA
ATOM     33  C   UNL     1      81.921 158.247  20.474  1.00  0.00    +0.278 C 
ENDBRANCH   4  32
TORSDOF 8
