MODEL 1
REMARK VINA RESULT:    -9.164      0.000      0.000
REMARK INTER + INTRA:         -14.606
REMARK INTER:                 -13.450
REMARK INTRA:                  -1.155
REMARK UNBOUND:                -1.155
REMARK SMILES CCOc1cc([C@@H](CS(C)(=O)=O)N2C(=O)c3cccc(NC(C)=O)c3C2=O)ccc1OC
REMARK SMILES IDX 6 1 5 2 4 3 30 4 29 5 28 6 7 7 13 8 20 9 19 10 25 11 18 12
REMARK SMILES IDX 16 13 26 14 17 15 14 16 27 17 15 18 21 19 22 20 24 21 23 23
REMARK SMILES IDX 8 24 9 25 11 26 12 27 10 28 3 29 2 30 1 31 31 32 32 33
REMARK H PARENT 21 22
ROOT
ATOM      1  C   UNL     1      83.267 157.937  25.575  1.00  0.00    -0.020 A 
ATOM      2  C   UNL     1      82.907 158.043  24.232  1.00  0.00    +0.056 A 
ATOM      3  C   UNL     1      83.399 157.143  23.296  1.00  0.00    +0.161 A 
ATOM      4  C   UNL     1      84.229 156.081  23.705  1.00  0.00    +0.160 A 
ATOM      5  C   UNL     1      84.576 155.966  25.040  1.00  0.00    +0.051 A 
ATOM      6  C   UNL     1      84.085 156.876  25.980  1.00  0.00    +0.010 A 
ENDROOT
BRANCH   1   7
ATOM      7  C   UNL     1      82.702 158.901  26.607  1.00  0.00    +0.139 C 
BRANCH   7   8
ATOM      8  N   UNL     1      83.410 158.866  27.891  1.00  0.00    -0.266 N 
ATOM      9  C   UNL     1      85.856 159.968  30.393  1.00  0.00    +0.054 A 
ATOM     10  C   UNL     1      86.052 159.378  31.638  1.00  0.00    +0.027 A 
ATOM     11  C   UNL     1      84.845 159.434  29.587  1.00  0.00    +0.076 A 
ATOM     12  C   UNL     1      85.277 158.315  32.073  1.00  0.00    +0.003 A 
ATOM     13  C   UNL     1      84.086 158.359  30.038  1.00  0.00    +0.055 A 
ATOM     14  C   UNL     1      84.394 159.801  28.221  1.00  0.00    +0.264 C 
ATOM     15  C   UNL     1      84.268 157.778  31.279  1.00  0.00    +0.015 A 
ATOM     16  C   UNL     1      83.124 158.001  28.956  1.00  0.00    +0.262 C 
ATOM     17  O   UNL     1      84.725 160.727  27.517  1.00  0.00    -0.268 OA
ATOM     18  O   UNL     1      82.285 157.122  28.950  1.00  0.00    -0.269 OA
BRANCH   9  19
ATOM     19  N   UNL     1      86.638 161.047  29.906  1.00  0.00    -0.326 N 
ATOM     20  C   UNL     1      86.330 162.370  29.942  1.00  0.00    +0.221 C 
ATOM     21  O   UNL     1      85.335 162.810  30.505  1.00  0.00    -0.275 OA
ATOM     22  H   UNL     1      87.500 160.811  29.495  1.00  0.00    +0.169 HD
ATOM     23  C   UNL     1      87.320 163.269  29.265  1.00  0.00    +0.114 C 
ENDBRANCH   9  19
ENDBRANCH   7   8
BRANCH   7  24
ATOM     24  C   UNL     1      81.186 158.776  26.840  1.00  0.00    +0.167 C 
BRANCH  24  25
ATOM     25  S   UNL     1      80.551 160.436  26.998  1.00  0.00    +0.149 S 
ATOM     26  O   UNL     1      79.357 160.565  26.234  1.00  0.00    -0.229 OA
ATOM     27  O   UNL     1      81.597 161.386  26.730  1.00  0.00    -0.229 OA
ATOM     28  C   UNL     1      80.070 160.588  28.676  1.00  0.00    +0.158 C 
ENDBRANCH  24  25
ENDBRANCH   7  24
ENDBRANCH   1   7
BRANCH   3  29
ATOM     29  O   UNL     1      83.120 157.189  21.966  1.00  0.00    -0.490 OA
BRANCH  29  30
ATOM     30  C   UNL     1      81.992 157.979  21.564  1.00  0.00    +0.226 C 
ATOM     31  C   UNL     1      82.042 158.026  20.061  1.00  0.00    +0.049 C 
ENDBRANCH  29  30
ENDBRANCH   3  29
BRANCH   4  32
ATOM     32  O   UNL     1      84.674 155.267  22.697  1.00  0.00    -0.493 OA
ATOM     33  C   UNL     1      85.684 154.294  23.042  1.00  0.00    +0.278 C 
ENDBRANCH   4  32
TORSDOF 8
ENDMDL
MODEL 2
REMARK VINA RESULT:    -8.935      1.479      2.608
REMARK INTER + INTRA:         -14.269
REMARK INTER:                 -13.313
REMARK INTRA:                  -0.956
REMARK UNBOUND:                -1.155
REMARK SMILES CCOc1cc([C@@H](CS(C)(=O)=O)N2C(=O)c3cccc(NC(C)=O)c3C2=O)ccc1OC
REMARK SMILES IDX 6 1 5 2 4 3 30 4 29 5 28 6 7 7 13 8 20 9 19 10 25 11 18 12
REMARK SMILES IDX 16 13 26 14 17 15 14 16 27 17 15 18 21 19 22 20 24 21 23 23
REMARK SMILES IDX 8 24 9 25 11 26 12 27 10 28 3 29 2 30 1 31 31 32 32 33
REMARK H PARENT 21 22
ROOT
ATOM      1  C   UNL     1      82.452 158.551  25.475  1.00  0.00    -0.020 A 
ATOM      2  C   UNL     1      83.422 157.652  25.036  1.00  0.00    +0.056 A 
ATOM      3  C   UNL     1      83.514 157.312  23.691  1.00  0.00    +0.161 A 
ATOM      4  C   UNL     1      82.658 157.916  22.751  1.00  0.00    +0.160 A 
ATOM      5  C   UNL     1      81.703 158.820  23.182  1.00  0.00    +0.051 A 
ATOM      6  C   UNL     1      81.607 159.155  24.536  1.00  0.00    +0.010 A 
ENDROOT
BRANCH   1   7
ATOM      7  C   UNL     1      82.371 158.950  26.940  1.00  0.00    +0.139 C 
BRANCH   7   8
ATOM      8  N   UNL     1      83.603 158.677  27.689  1.00  0.00    -0.266 N 
ATOM      9  C   UNL     1      86.783 159.512  29.315  1.00  0.00    +0.054 A 
ATOM     10  C   UNL     1      87.619 158.604  29.958  1.00  0.00    +0.027 A 
ATOM     11  C   UNL     1      85.586 159.015  28.788  1.00  0.00    +0.076 A 
ATOM     12  C   UNL     1      87.284 157.265  30.084  1.00  0.00    +0.003 A 
ATOM     13  C   UNL     1      85.275 157.665  28.915  1.00  0.00    +0.055 A 
ATOM     14  C   UNL     1      84.500 159.690  28.036  1.00  0.00    +0.264 C 
ATOM     15  C   UNL     1      86.095 156.761  29.564  1.00  0.00    +0.015 A 
ATOM     16  C   UNL     1      83.968 157.438  28.234  1.00  0.00    +0.262 C 
ATOM     17  O   UNL     1      84.337 160.863  27.793  1.00  0.00    -0.268 OA
ATOM     18  O   UNL     1      83.344 156.402  28.120  1.00  0.00    -0.269 OA
BRANCH   9  19
ATOM     19  N   UNL     1      87.098 160.886  29.152  1.00  0.00    -0.326 N 
ATOM     20  C   UNL     1      86.564 161.939  29.824  1.00  0.00    +0.221 C 
ATOM     21  O   UNL     1      85.776 161.810  30.753  1.00  0.00    -0.275 OA
ATOM     22  H   UNL     1      87.779 161.100  28.475  1.00  0.00    +0.169 HD
ATOM     23  C   UNL     1      87.035 163.286  29.366  1.00  0.00    +0.114 C 
ENDBRANCH   9  19
ENDBRANCH   7   8
BRANCH   7  24
ATOM     24  C   UNL     1      81.159 158.377  27.696  1.00  0.00    +0.167 C 
BRANCH  24  25
ATOM     25  S   UNL     1      80.334 159.759  28.468  1.00  0.00    +0.149 S 
ATOM     26  O   UNL     1      81.301 160.635  29.035  1.00  0.00    -0.229 OA
ATOM     27  O   UNL     1      79.300 159.280  29.345  1.00  0.00    -0.229 OA
ATOM     28  C   UNL     1      79.591 160.645  27.151  1.00  0.00    +0.158 C 
ENDBRANCH  24  25
ENDBRANCH   7  24
ENDBRANCH   1   7
BRANCH   3  29
ATOM     29  O   UNL     1      84.412 156.427  23.183  1.00  0.00    -0.490 OA
BRANCH  29  30
ATOM     30  C   UNL     1      84.821 155.349  24.038  1.00  0.00    +0.226 C 
ATOM     31  C   UNL     1      85.593 154.403  23.160  1.00  0.00    +0.049 C 
ENDBRANCH  29  30
ENDBRANCH   3  29
BRANCH   4  32
ATOM     32  O   UNL     1      82.821 157.492  21.457  1.00  0.00    -0.493 OA
ATOM     33  C   UNL     1      82.009 158.136  20.452  1.00  0.00    +0.278 C 
ENDBRANCH   4  32
TORSDOF 8
ENDMDL
MODEL 3
REMARK VINA RESULT:    -8.875      2.119      3.167
REMARK INTER + INTRA:         -14.181
REMARK INTER:                 -13.166
REMARK INTRA:                  -1.015
REMARK UNBOUND:                -1.155
REMARK SMILES CCOc1cc([C@@H](CS(C)(=O)=O)N2C(=O)c3cccc(NC(C)=O)c3C2=O)ccc1OC
REMARK SMILES IDX 6 1 5 2 4 3 30 4 29 5 28 6 7 7 13 8 20 9 19 10 25 11 18 12
REMARK SMILES IDX 16 13 26 14 17 15 14 16 27 17 15 18 21 19 22 20 24 21 23 23
REMARK SMILES IDX 8 24 9 25 11 26 12 27 10 28 3 29 2 30 1 31 31 32 32 33
REMARK H PARENT 21 22
ROOT
ATOM      1  C   UNL     1      82.587 158.584  25.558  1.00  0.00    -0.020 A 
ATOM      2  C   UNL     1      83.408 157.559  25.091  1.00  0.00    +0.056 A 
ATOM      3  C   UNL     1      83.444 157.244  23.737  1.00  0.00    +0.161 A 
ATOM      4  C   UNL     1      82.687 157.995  22.818  1.00  0.00    +0.160 A 
ATOM      5  C   UNL     1      81.882 159.023  23.278  1.00  0.00    +0.051 A 
ATOM      6  C   UNL     1      81.842 159.333  24.641  1.00  0.00    +0.010 A 
ENDROOT
BRANCH   1   7
ATOM      7  C   UNL     1      82.573 158.952  27.034  1.00  0.00    +0.139 C 
BRANCH   7   8
ATOM      8  N   UNL     1      83.452 158.113  27.856  1.00  0.00    -0.266 N 
ATOM      9  C   UNL     1      86.489 157.297  29.743  1.00  0.00    +0.054 A 
ATOM     10  C   UNL     1      86.728 156.094  30.400  1.00  0.00    +0.027 A 
ATOM     11  C   UNL     1      85.251 157.443  29.109  1.00  0.00    +0.076 A 
ATOM     12  C   UNL     1      85.781 155.082  30.437  1.00  0.00    +0.003 A 
ATOM     13  C   UNL     1      84.320 156.411  29.148  1.00  0.00    +0.055 A 
ATOM     14  C   UNL     1      84.692 158.565  28.314  1.00  0.00    +0.264 C 
ATOM     15  C   UNL     1      84.546 155.218  29.810  1.00  0.00    +0.015 A 
ATOM     16  C   UNL     1      83.129 156.848  28.365  1.00  0.00    +0.262 C 
ATOM     17  O   UNL     1      85.134 159.673  28.117  1.00  0.00    -0.268 OA
ATOM     18  O   UNL     1      82.096 156.242  28.156  1.00  0.00    -0.269 OA
BRANCH   9  19
ATOM     19  N   UNL     1      87.438 158.350  29.669  1.00  0.00    -0.326 N 
ATOM     20  C   UNL     1      88.714 158.279  29.209  1.00  0.00    +0.221 C 
ATOM     21  O   UNL     1      89.187 157.269  28.701  1.00  0.00    -0.275 OA
ATOM     22  H   UNL     1      87.137 159.231  29.987  1.00  0.00    +0.169 HD
ATOM     23  C   UNL     1      89.506 159.544  29.340  1.00  0.00    +0.114 C 
ENDBRANCH   9  19
ENDBRANCH   7   8
BRANCH   7  24
ATOM     24  C   UNL     1      81.171 159.019  27.666  1.00  0.00    +0.167 C 
BRANCH  24  25
ATOM     25  S   UNL     1      81.059 160.589  28.506  1.00  0.00    +0.149 S 
ATOM     26  O   UNL     1      80.313 161.504  27.711  1.00  0.00    -0.229 OA
ATOM     27  O   UNL     1      82.369 161.013  28.923  1.00  0.00    -0.229 OA
ATOM     28  C   UNL     1      80.087 160.281  29.931  1.00  0.00    +0.158 C 
ENDBRANCH  24  25
ENDBRANCH   7  24
ENDBRANCH   1   7
BRANCH   3  29
ATOM     29  O   UNL     1      84.195 156.245  23.202  1.00  0.00    -0.490 OA
BRANCH  29  30
ATOM     30  C   UNL     1      84.916 155.409  24.117  1.00  0.00    +0.226 C 
ATOM     31  C   UNL     1      85.644 154.405  23.265  1.00  0.00    +0.049 C 
ENDBRANCH  29  30
ENDBRANCH   3  29
BRANCH   4  32
ATOM     32  O   UNL     1      82.780 157.585  21.513  1.00  0.00    -0.493 OA
ATOM     33  C   UNL     1      81.743 158.031  20.614  1.00  0.00    +0.278 C 
ENDBRANCH   4  32
TORSDOF 8
ENDMDL
MODEL 4
REMARK VINA RESULT:    -8.788      1.177      2.478
REMARK INTER + INTRA:         -14.054
REMARK INTER:                 -13.012
REMARK INTRA:                  -1.042
REMARK UNBOUND:                -1.155
REMARK SMILES CCOc1cc([C@@H](CS(C)(=O)=O)N2C(=O)c3cccc(NC(C)=O)c3C2=O)ccc1OC
REMARK SMILES IDX 6 1 5 2 4 3 30 4 29 5 28 6 7 7 13 8 20 9 19 10 25 11 18 12
REMARK SMILES IDX 16 13 26 14 17 15 14 16 27 17 15 18 21 19 22 20 24 21 23 23
REMARK SMILES IDX 8 24 9 25 11 26 12 27 10 28 3 29 2 30 1 31 31 32 32 33
REMARK H PARENT 21 22
ROOT
ATOM      1  C   UNL     1      83.457 157.458  25.583  1.00  0.00    -0.020 A 
ATOM      2  C   UNL     1      84.163 156.352  26.054  1.00  0.00    +0.056 A 
ATOM      3  C   UNL     1      84.747 155.456  25.167  1.00  0.00    +0.161 A 
ATOM      4  C   UNL     1      84.672 155.687  23.780  1.00  0.00    +0.160 A 
ATOM      5  C   UNL     1      83.983 156.792  23.310  1.00  0.00    +0.051 A 
ATOM      6  C   UNL     1      83.392 157.688  24.204  1.00  0.00    +0.010 A 
ENDROOT
BRANCH   1   7
ATOM      7  C   UNL     1      82.848 158.458  26.553  1.00  0.00    +0.139 C 
BRANCH   7   8
ATOM      8  N   UNL     1      83.534 158.511  27.849  1.00  0.00    -0.266 N 
ATOM      9  C   UNL     1      85.859 159.851  30.350  1.00  0.00    +0.054 A 
ATOM     10  C   UNL     1      86.072 159.317  31.616  1.00  0.00    +0.027 A 
ATOM     11  C   UNL     1      84.899 159.227  29.546  1.00  0.00    +0.076 A 
ATOM     12  C   UNL     1      85.360 158.219  32.075  1.00  0.00    +0.003 A 
ATOM     13  C   UNL     1      84.205 158.119  30.021  1.00  0.00    +0.055 A 
ATOM     14  C   UNL     1      84.450 159.519  28.162  1.00  0.00    +0.264 C 
ATOM     15  C   UNL     1      84.402 157.591  31.284  1.00  0.00    +0.015 A 
ATOM     16  C   UNL     1      83.287 157.664  28.938  1.00  0.00    +0.262 C 
ATOM     17  O   UNL     1      84.731 160.442  27.433  1.00  0.00    -0.268 OA
ATOM     18  O   UNL     1      82.507 156.732  28.948  1.00  0.00    -0.269 OA
BRANCH   9  19
ATOM     19  N   UNL     1      86.577 160.964  29.839  1.00  0.00    -0.326 N 
ATOM     20  C   UNL     1      86.225 162.274  29.907  1.00  0.00    +0.221 C 
ATOM     21  O   UNL     1      85.244 162.672  30.523  1.00  0.00    -0.275 OA
ATOM     22  H   UNL     1      87.426 160.763  29.383  1.00  0.00    +0.169 HD
ATOM     23  C   UNL     1      87.148 163.216  29.194  1.00  0.00    +0.114 C 
ENDBRANCH   9  19
ENDBRANCH   7   8
BRANCH   7  24
ATOM     24  C   UNL     1      81.332 158.303  26.769  1.00  0.00    +0.167 C 
BRANCH  24  25
ATOM     25  S   UNL     1      80.619 159.931  26.614  1.00  0.00    +0.149 S 
ATOM     26  O   UNL     1      79.722 159.956  25.510  1.00  0.00    -0.229 OA
ATOM     27  O   UNL     1      81.662 160.922  26.623  1.00  0.00    -0.229 OA
ATOM     28  C   UNL     1      79.632 160.141  28.047  1.00  0.00    +0.158 C 
ENDBRANCH  24  25
ENDBRANCH   7  24
ENDBRANCH   1   7
BRANCH   3  29
ATOM     29  O   UNL     1      85.429 154.341  25.540  1.00  0.00    -0.490 OA
BRANCH  29  30
ATOM     30  C   UNL     1      85.068 153.744  26.793  1.00  0.00    +0.226 C 
ATOM     31  C   UNL     1      85.053 152.260  26.549  1.00  0.00    +0.049 C 
ENDBRANCH  29  30
ENDBRANCH   3  29
BRANCH   4  32
ATOM     32  O   UNL     1      85.262 154.729  22.997  1.00  0.00    -0.493 OA
ATOM     33  C   UNL     1      86.561 155.042  22.450  1.00  0.00    +0.278 C 
ENDBRANCH   4  32
TORSDOF 8
ENDMDL
MODEL 5
REMARK VINA RESULT:    -8.337      2.188      7.026
REMARK INTER + INTRA:         -13.392
REMARK INTER:                 -13.540
REMARK INTRA:                   0.149
REMARK UNBOUND:                -1.155
REMARK SMILES CCOc1cc([C@@H](CS(C)(=O)=O)N2C(=O)c3cccc(NC(C)=O)c3C2=O)ccc1OC
REMARK SMILES IDX 6 1 5 2 4 3 30 4 29 5 28 6 7 7 13 8 20 9 19 10 25 11 18 12
REMARK SMILES IDX 16 13 26 14 17 15 14 16 27 17 15 18 21 19 22 20 24 21 23 23
REMARK SMILES IDX 8 24 9 25 11 26 12 27 10 28 3 29 2 30 1 31 31 32 32 33
REMARK H PARENT 21 22
ROOT
ATOM      1  C   UNL     1      83.073 159.906  28.827  1.00  0.00    -0.020 A 
ATOM      2  C   UNL     1      84.361 160.414  28.661  1.00  0.00    +0.056 A 
ATOM      3  C   UNL     1      85.146 160.723  29.765  1.00  0.00    +0.161 A 
ATOM      4  C   UNL     1      84.665 160.477  31.065  1.00  0.00    +0.160 A 
ATOM      5  C   UNL     1      83.392 159.960  31.232  1.00  0.00    +0.051 A 
ATOM      6  C   UNL     1      82.601 159.656  30.121  1.00  0.00    +0.010 A 
ENDROOT
BRANCH   1   7
ATOM      7  C   UNL     1      82.225 159.535  27.621  1.00  0.00    +0.139 C 
BRANCH   7   8
ATOM      8  N   UNL     1      82.868 158.564  26.729  1.00  0.00    -0.266 N 
ATOM      9  C   UNL     1      84.797 155.557  25.892  1.00  0.00    +0.054 A 
ATOM     10  C   UNL     1      85.115 155.140  24.604  1.00  0.00    +0.027 A 
ATOM     11  C   UNL     1      84.014 156.711  26.015  1.00  0.00    +0.076 A 
ATOM     12  C   UNL     1      84.672 155.826  23.483  1.00  0.00    +0.003 A 
ATOM     13  C   UNL     1      83.590 157.391  24.878  1.00  0.00    +0.055 A 
ATOM     14  C   UNL     1      83.523 157.430  27.217  1.00  0.00    +0.264 C 
ATOM     15  C   UNL     1      83.892 156.974  23.595  1.00  0.00    +0.015 A 
ATOM     16  C   UNL     1      82.813 158.581  25.329  1.00  0.00    +0.262 C 
ATOM     17  O   UNL     1      83.591 157.126  28.385  1.00  0.00    -0.268 OA
ATOM     18  O   UNL     1      82.269 159.431  24.652  1.00  0.00    -0.269 OA
BRANCH   9  19
ATOM     19  N   UNL     1      85.243 154.892  27.063  1.00  0.00    -0.326 N 
ATOM     20  C   UNL     1      85.090 153.578  27.374  1.00  0.00    +0.221 C 
ATOM     21  O   UNL     1      84.600 152.761  26.603  1.00  0.00    -0.275 OA
ATOM     22  H   UNL     1      85.718 155.444  27.725  1.00  0.00    +0.169 HD
ATOM     23  C   UNL     1      85.593 153.186  28.730  1.00  0.00    +0.114 C 
ENDBRANCH   9  19
ENDBRANCH   7   8
BRANCH   7  24
ATOM     24  C   UNL     1      81.708 160.733  26.805  1.00  0.00    +0.167 C 
BRANCH  24  25
ATOM     25  S   UNL     1      80.032 161.035  27.338  1.00  0.00    +0.149 S 
ATOM     26  O   UNL     1      79.175 161.097  26.204  1.00  0.00    -0.229 OA
ATOM     27  O   UNL     1      80.001 162.159  28.235  1.00  0.00    -0.229 OA
ATOM     28  C   UNL     1      79.564 159.596  28.221  1.00  0.00    +0.158 C 
ENDBRANCH  24  25
ENDBRANCH   7  24
ENDBRANCH   1   7
BRANCH   3  29
ATOM     29  O   UNL     1      86.400 161.244  29.692  1.00  0.00    -0.490 OA
BRANCH  29  30
ATOM     30  C   UNL     1      86.515 162.609  29.267  1.00  0.00    +0.226 C 
ATOM     31  C   UNL     1      87.948 162.784  28.841  1.00  0.00    +0.049 C 
ENDBRANCH  29  30
ENDBRANCH   3  29
BRANCH   4  32
ATOM     32  O   UNL     1      85.513 160.839  32.079  1.00  0.00    -0.493 OA
ATOM     33  C   UNL     1      84.926 161.026  33.384  1.00  0.00    +0.278 C 
ENDBRANCH   4  32
TORSDOF 8
ENDMDL
MODEL 6
REMARK VINA RESULT:    -8.259      2.086      4.179
REMARK INTER + INTRA:         -13.276
REMARK INTER:                 -12.399
REMARK INTRA:                  -0.877
REMARK UNBOUND:                -1.155
REMARK SMILES CCOc1cc([C@@H](CS(C)(=O)=O)N2C(=O)c3cccc(NC(C)=O)c3C2=O)ccc1OC
REMARK SMILES IDX 6 1 5 2 4 3 30 4 29 5 28 6 7 7 13 8 20 9 19 10 25 11 18 12
REMARK SMILES IDX 16 13 26 14 17 15 14 16 27 17 15 18 21 19 22 20 24 21 23 23
REMARK SMILES IDX 8 24 9 25 11 26 12 27 10 28 3 29 2 30 1 31 31 32 32 33
REMARK H PARENT 21 22
ROOT
ATOM      1  C   UNL     1      82.557 158.610  25.630  1.00  0.00    -0.020 A 
ATOM      2  C   UNL     1      83.532 157.717  25.187  1.00  0.00    +0.056 A 
ATOM      3  C   UNL     1      83.583 157.331  23.853  1.00  0.00    +0.161 A 
ATOM      4  C   UNL     1      82.679 157.880  22.924  1.00  0.00    +0.160 A 
ATOM      5  C   UNL     1      81.718 158.777  23.359  1.00  0.00    +0.051 A 
ATOM      6  C   UNL     1      81.664 159.159  24.702  1.00  0.00    +0.010 A 
ENDROOT
BRANCH   1   7
ATOM      7  C   UNL     1      82.521 159.060  27.082  1.00  0.00    +0.139 C 
BRANCH   7   8
ATOM      8  N   UNL     1      83.717 158.681  27.842  1.00  0.00    -0.266 N 
ATOM      9  C   UNL     1      85.902 156.418  29.730  1.00  0.00    +0.054 A 
ATOM     10  C   UNL     1      87.128 156.766  30.288  1.00  0.00    +0.027 A 
ATOM     11  C   UNL     1      85.227 157.407  29.006  1.00  0.00    +0.076 A 
ATOM     12  C   UNL     1      87.669 158.033  30.132  1.00  0.00    +0.003 A 
ATOM     13  C   UNL     1      85.782 158.675  28.871  1.00  0.00    +0.055 A 
ATOM     14  C   UNL     1      83.914 157.380  28.314  1.00  0.00    +0.264 C 
ATOM     15  C   UNL     1      87.005 159.023  29.413  1.00  0.00    +0.015 A 
ATOM     16  C   UNL     1      84.824 159.505  28.085  1.00  0.00    +0.262 C 
ATOM     17  O   UNL     1      83.159 156.457  28.116  1.00  0.00    -0.268 OA
ATOM     18  O   UNL     1      84.931 160.667  27.745  1.00  0.00    -0.269 OA
BRANCH   9  19
ATOM     19  N   UNL     1      85.308 155.139  29.880  1.00  0.00    -0.326 N 
ATOM     20  C   UNL     1      84.651 154.658  30.968  1.00  0.00    +0.221 C 
ATOM     21  O   UNL     1      84.410 155.338  31.958  1.00  0.00    -0.275 OA
ATOM     22  H   UNL     1      85.380 154.530  29.110  1.00  0.00    +0.169 HD
ATOM     23  C   UNL     1      84.210 153.229  30.861  1.00  0.00    +0.114 C 
ENDBRANCH   9  19
ENDBRANCH   7   8
BRANCH   7  24
ATOM     24  C   UNL     1      81.256 158.643  27.853  1.00  0.00    +0.167 C 
BRANCH  24  25
ATOM     25  S   UNL     1      80.571 160.131  28.561  1.00  0.00    +0.149 S 
ATOM     26  O   UNL     1      81.622 161.040  28.868  1.00  0.00    -0.229 OA
ATOM     27  O   UNL     1      79.675 159.791  29.635  1.00  0.00    -0.229 OA
ATOM     28  C   UNL     1      79.648 160.873  27.271  1.00  0.00    +0.158 C 
ENDBRANCH  24  25
ENDBRANCH   7  24
ENDBRANCH   1   7
BRANCH   3  29
ATOM     29  O   UNL     1      84.483 156.448  23.344  1.00  0.00    -0.490 OA
BRANCH  29  30
ATOM     30  C   UNL     1      84.866 155.350  24.184  1.00  0.00    +0.226 C 
ATOM     31  C   UNL     1      85.593 154.385  23.287  1.00  0.00    +0.049 C 
ENDBRANCH  29  30
ENDBRANCH   3  29
BRANCH   4  32
ATOM     32  O   UNL     1      82.804 157.413  21.642  1.00  0.00    -0.493 OA
ATOM     33  C   UNL     1      81.933 157.994  20.648  1.00  0.00    +0.278 C 
ENDBRANCH   4  32
TORSDOF 8
ENDMDL
MODEL 7
REMARK VINA RESULT:    -8.024      2.672      4.958
REMARK INTER + INTRA:         -12.932
REMARK INTER:                 -11.616
REMARK INTRA:                  -1.316
REMARK UNBOUND:                -1.155
REMARK SMILES CCOc1cc([C@@H](CS(C)(=O)=O)N2C(=O)c3cccc(NC(C)=O)c3C2=O)ccc1OC
REMARK SMILES IDX 6 1 5 2 4 3 30 4 29 5 28 6 7 7 13 8 20 9 19 10 25 11 18 12
REMARK SMILES IDX 16 13 26 14 17 15 14 16 27 17 15 18 21 19 22 20 24 21 23 23
REMARK SMILES IDX 8 24 9 25 11 26 12 27 10 28 3 29 2 30 1 31 31 32 32 33
REMARK H PARENT 21 22
ROOT
ATOM      1  C   UNL     1      82.266 160.172  27.937  1.00  0.00    -0.020 A 
ATOM      2  C   UNL     1      82.978 159.542  26.917  1.00  0.00    +0.056 A 
ATOM      3  C   UNL     1      82.356 159.215  25.718  1.00  0.00    +0.161 A 
ATOM      4  C   UNL     1      81.009 159.564  25.504  1.00  0.00    +0.160 A 
ATOM      5  C   UNL     1      80.303 160.202  26.510  1.00  0.00    +0.051 A 
ATOM      6  C   UNL     1      80.929 160.524  27.718  1.00  0.00    +0.010 A 
ENDROOT
BRANCH   1   7
ATOM      7  C   UNL     1      82.954 160.561  29.236  1.00  0.00    +0.139 C 
BRANCH   7   8
ATOM      8  N   UNL     1      84.241 159.888  29.442  1.00  0.00    -0.266 N 
ATOM      9  C   UNL     1      86.454 157.060  30.193  1.00  0.00    +0.054 A 
ATOM     10  C   UNL     1      87.843 157.118  30.240  1.00  0.00    +0.027 A 
ATOM     11  C   UNL     1      85.777 158.235  29.847  1.00  0.00    +0.076 A 
ATOM     12  C   UNL     1      88.536 158.282  29.947  1.00  0.00    +0.003 A 
ATOM     13  C   UNL     1      86.491 159.396  29.569  1.00  0.00    +0.055 A 
ATOM     14  C   UNL     1      84.326 158.523  29.729  1.00  0.00    +0.264 C 
ATOM     15  C   UNL     1      87.872 159.456  29.601  1.00  0.00    +0.015 A 
ATOM     16  C   UNL     1      85.504 160.472  29.269  1.00  0.00    +0.262 C 
ATOM     17  O   UNL     1      83.378 157.776  29.798  1.00  0.00    -0.268 OA
ATOM     18  O   UNL     1      85.714 161.632  28.976  1.00  0.00    -0.269 OA
BRANCH   9  19
ATOM     19  N   UNL     1      85.708 155.893  30.500  1.00  0.00    -0.326 N 
ATOM     20  C   UNL     1      85.330 154.907  29.644  1.00  0.00    +0.221 C 
ATOM     21  O   UNL     1      85.680 154.870  28.471  1.00  0.00    -0.275 OA
ATOM     22  H   UNL     1      85.434 155.784  31.439  1.00  0.00    +0.169 HD
ATOM     23  C   UNL     1      84.468 153.840  30.249  1.00  0.00    +0.114 C 
ENDBRANCH   9  19
ENDBRANCH   7   8
BRANCH   7  24
ATOM     24  C   UNL     1      82.080 160.417  30.495  1.00  0.00    +0.167 C 
BRANCH  24  25
ATOM     25  S   UNL     1      82.393 161.854  31.506  1.00  0.00    +0.149 S 
ATOM     26  O   UNL     1      81.196 162.237  32.174  1.00  0.00    -0.229 OA
ATOM     27  O   UNL     1      83.049 162.867  30.723  1.00  0.00    -0.229 OA
ATOM     28  C   UNL     1      83.492 161.307  32.756  1.00  0.00    +0.158 C 
ENDBRANCH  24  25
ENDBRANCH   7  24
ENDBRANCH   1   7
BRANCH   3  29
ATOM     29  O   UNL     1      82.969 158.579  24.685  1.00  0.00    -0.490 OA
BRANCH  29  30
ATOM     30  C   UNL     1      83.738 157.411  25.001  1.00  0.00    +0.226 C 
ATOM     31  C   UNL     1      84.173 156.838  23.680  1.00  0.00    +0.049 C 
ENDBRANCH  29  30
ENDBRANCH   3  29
BRANCH   4  32
ATOM     32  O   UNL     1      80.490 159.175  24.297  1.00  0.00    -0.493 OA
ATOM     33  C   UNL     1      79.178 158.574  24.314  1.00  0.00    +0.278 C 
ENDBRANCH   4  32
TORSDOF 8
ENDMDL
MODEL 8
REMARK VINA RESULT:    -7.976      2.829      7.349
REMARK INTER + INTRA:         -12.862
REMARK INTER:                 -12.521
REMARK INTRA:                  -0.341
REMARK UNBOUND:                -1.155
REMARK SMILES CCOc1cc([C@@H](CS(C)(=O)=O)N2C(=O)c3cccc(NC(C)=O)c3C2=O)ccc1OC
REMARK SMILES IDX 6 1 5 2 4 3 30 4 29 5 28 6 7 7 13 8 20 9 19 10 25 11 18 12
REMARK SMILES IDX 16 13 26 14 17 15 14 16 27 17 15 18 21 19 22 20 24 21 23 23
REMARK SMILES IDX 8 24 9 25 11 26 12 27 10 28 3 29 2 30 1 31 31 32 32 33
REMARK H PARENT 21 22
ROOT
ATOM      1  C   UNL     1      85.469 160.857  30.090  1.00  0.00    -0.020 A 
ATOM      2  C   UNL     1      86.574 160.025  29.922  1.00  0.00    +0.056 A 
ATOM      3  C   UNL     1      87.784 160.538  29.469  1.00  0.00    +0.161 A 
ATOM      4  C   UNL     1      87.917 161.918  29.224  1.00  0.00    +0.160 A 
ATOM      5  C   UNL     1      86.825 162.749  29.403  1.00  0.00    +0.051 A 
ATOM      6  C   UNL     1      85.607 162.230  29.852  1.00  0.00    +0.010 A 
ENDROOT
BRANCH   1   7
ATOM      7  C   UNL     1      84.155 160.303  30.617  1.00  0.00    +0.139 C 
BRANCH   7   8
ATOM      8  N   UNL     1      83.088 160.269  29.612  1.00  0.00    -0.266 N 
ATOM      9  C   UNL     1      81.459 159.219  26.497  1.00  0.00    +0.054 A 
ATOM     10  C   UNL     1      80.214 159.655  26.055  1.00  0.00    +0.027 A 
ATOM     11  C   UNL     1      81.901 159.698  27.735  1.00  0.00    +0.076 A 
ATOM     12  C   UNL     1      79.434 160.519  26.807  1.00  0.00    +0.003 A 
ATOM     13  C   UNL     1      81.107 160.574  28.468  1.00  0.00    +0.055 A 
ATOM     14  C   UNL     1      83.164 159.458  28.477  1.00  0.00    +0.264 C 
ATOM     15  C   UNL     1      79.864 161.000  28.040  1.00  0.00    +0.015 A 
ATOM     16  C   UNL     1      81.853 160.927  29.709  1.00  0.00    +0.262 C 
ATOM     17  O   UNL     1      84.073 158.698  28.236  1.00  0.00    -0.268 OA
ATOM     18  O   UNL     1      81.512 161.660  30.616  1.00  0.00    -0.269 OA
BRANCH   9  19
ATOM     19  N   UNL     1      82.294 158.348  25.750  1.00  0.00    -0.326 N 
ATOM     20  C   UNL     1      82.611 158.438  24.432  1.00  0.00    +0.221 C 
ATOM     21  O   UNL     1      82.265 159.377  23.724  1.00  0.00    -0.275 OA
ATOM     22  H   UNL     1      82.688 157.592  26.242  1.00  0.00    +0.169 HD
ATOM     23  C   UNL     1      83.448 157.313  23.903  1.00  0.00    +0.114 C 
ENDBRANCH   9  19
ENDBRANCH   7   8
BRANCH   7  24
ATOM     24  C   UNL     1      83.643 160.978  31.903  1.00  0.00    +0.167 C 
BRANCH  24  25
ATOM     25  S   UNL     1      84.049 159.886  33.254  1.00  0.00    +0.149 S 
ATOM     26  O   UNL     1      82.892 159.662  34.051  1.00  0.00    -0.229 OA
ATOM     27  O   UNL     1      85.220 160.369  33.936  1.00  0.00    -0.229 OA
ATOM     28  C   UNL     1      84.428 158.347  32.506  1.00  0.00    +0.158 C 
ENDBRANCH  24  25
ENDBRANCH   7  24
ENDBRANCH   1   7
BRANCH   3  29
ATOM     29  O   UNL     1      88.901 159.794  29.254  1.00  0.00    -0.490 OA
BRANCH  29  30
ATOM     30  C   UNL     1      88.922 158.473  29.813  1.00  0.00    +0.226 C 
ATOM     31  C   UNL     1      89.637 157.615  28.805  1.00  0.00    +0.049 C 
ENDBRANCH  29  30
ENDBRANCH   3  29
BRANCH   4  32
ATOM     32  O   UNL     1      89.145 162.313  28.761  1.00  0.00    -0.493 OA
ATOM     33  C   UNL     1      89.160 163.181  27.608  1.00  0.00    +0.278 C 
ENDBRANCH   4  32
TORSDOF 8
ENDMDL
MODEL 9
REMARK VINA RESULT:    -7.867      2.889      4.975
REMARK INTER + INTRA:         -12.701
REMARK INTER:                 -11.643
REMARK INTRA:                  -1.058
REMARK UNBOUND:                -1.155
REMARK SMILES CCOc1cc([C@@H](CS(C)(=O)=O)N2C(=O)c3cccc(NC(C)=O)c3C2=O)ccc1OC
REMARK SMILES IDX 6 1 5 2 4 3 30 4 29 5 28 6 7 7 13 8 20 9 19 10 25 11 18 12
REMARK SMILES IDX 16 13 26 14 17 15 14 16 27 17 15 18 21 19 22 20 24 21 23 23
REMARK SMILES IDX 8 24 9 25 11 26 12 27 10 28 3 29 2 30 1 31 31 32 32 33
REMARK H PARENT 21 22
ROOT
ATOM      1  C   UNL     1      82.909 160.168  28.413  1.00  0.00    -0.020 A 
ATOM      2  C   UNL     1      83.606 159.486  27.417  1.00  0.00    +0.056 A 
ATOM      3  C   UNL     1      82.942 159.004  26.295  1.00  0.00    +0.161 A 
ATOM      4  C   UNL     1      81.565 159.246  26.131  1.00  0.00    +0.160 A 
ATOM      5  C   UNL     1      80.874 159.935  27.113  1.00  0.00    +0.051 A 
ATOM      6  C   UNL     1      81.542 160.414  28.243  1.00  0.00    +0.010 A 
ENDROOT
BRANCH   1   7
ATOM      7  C   UNL     1      83.640 160.727  29.624  1.00  0.00    +0.139 C 
BRANCH   7   8
ATOM      8  N   UNL     1      85.052 160.336  29.688  1.00  0.00    -0.266 N 
ATOM      9  C   UNL     1      87.876 158.104  30.396  1.00  0.00    +0.054 A 
ATOM     10  C   UNL     1      89.217 158.416  30.195  1.00  0.00    +0.027 A 
ATOM     11  C   UNL     1      86.933 159.069  30.027  1.00  0.00    +0.076 A 
ATOM     12  C   UNL     1      89.610 159.626  29.643  1.00  0.00    +0.003 A 
ATOM     13  C   UNL     1      87.350 160.281  29.487  1.00  0.00    +0.055 A 
ATOM     14  C   UNL     1      85.452 159.071  30.126  1.00  0.00    +0.264 C 
ATOM     15  C   UNL     1      88.680 160.592  29.272  1.00  0.00    +0.015 A 
ATOM     16  C   UNL     1      86.132 161.102  29.229  1.00  0.00    +0.262 C 
ATOM     17  O   UNL     1      84.695 158.186  30.451  1.00  0.00    -0.268 OA
ATOM     18  O   UNL     1      86.058 162.221  28.760  1.00  0.00    -0.269 OA
BRANCH   9  19
ATOM     19  N   UNL     1      87.435 156.884  30.972  1.00  0.00    -0.326 N 
ATOM     20  C   UNL     1      87.369 156.572  32.292  1.00  0.00    +0.221 C 
ATOM     21  O   UNL     1      87.613 157.377  33.183  1.00  0.00    -0.275 OA
ATOM     22  H   UNL     1      87.143 156.185  30.343  1.00  0.00    +0.169 HD
ATOM     23  C   UNL     1      86.943 155.166  32.590  1.00  0.00    +0.114 C 
ENDBRANCH   9  19
ENDBRANCH   7   8
BRANCH   7  24
ATOM     24  C   UNL     1      82.956 160.443  30.974  1.00  0.00    +0.167 C 
BRANCH  24  25
ATOM     25  S   UNL     1      82.479 162.024  31.652  1.00  0.00    +0.149 S 
ATOM     26  O   UNL     1      81.170 161.932  32.200  1.00  0.00    -0.229 OA
ATOM     27  O   UNL     1      82.702 163.058  30.677  1.00  0.00    -0.229 OA
ATOM     28  C   UNL     1      83.556 162.287  33.009  1.00  0.00    +0.158 C 
ENDBRANCH  24  25
ENDBRANCH   7  24
ENDBRANCH   1   7
BRANCH   3  29
ATOM     29  O   UNL     1      83.539 158.308  25.291  1.00  0.00    -0.490 OA
BRANCH  29  30
ATOM     30  C   UNL     1      83.930 156.958  25.576  1.00  0.00    +0.226 C 
ATOM     31  C   UNL     1      84.287 156.348  24.248  1.00  0.00    +0.049 C 
ENDBRANCH  29  30
ENDBRANCH   3  29
BRANCH   4  32
ATOM     32  O   UNL     1      81.008 158.707  25.001  1.00  0.00    -0.493 OA
ATOM     33  C   UNL     1      79.595 158.925  24.801  1.00  0.00    +0.278 C 
ENDBRANCH   4  32
TORSDOF 8
ENDMDL
