MODEL 1
REMARK VINA RESULT:    -9.173      0.000      0.000
REMARK INTER + INTRA:         -14.623
REMARK INTER:                 -13.463
REMARK INTRA:                  -1.160
REMARK UNBOUND:                -1.160
REMARK SMILES CCOc1cc([C@@H](CS(C)(=O)=O)N2C(=O)c3cccc(NC(C)=O)c3C2=O)ccc1OC
REMARK SMILES IDX 6 1 5 2 4 3 30 4 29 5 28 6 7 7 13 8 20 9 19 10 25 11 18 12
REMARK SMILES IDX 16 13 26 14 17 15 14 16 27 17 15 18 21 19 22 20 24 21 23 23
REMARK SMILES IDX 8 24 9 25 11 26 12 27 10 28 3 29 2 30 1 31 31 32 32 33
REMARK H PARENT 21 22
ROOT
ATOM      1  C   UNL     1      83.274 157.956  25.603  1.00  0.00    -0.020 A 
ATOM      2  C   UNL     1      82.902 158.057  24.263  1.00  0.00    +0.056 A 
ATOM      3  C   UNL     1      83.387 157.155  23.325  1.00  0.00    +0.161 A 
ATOM      4  C   UNL     1      84.222 156.096  23.730  1.00  0.00    +0.160 A 
ATOM      5  C   UNL     1      84.582 155.985  25.062  1.00  0.00    +0.051 A 
ATOM      6  C   UNL     1      84.098 156.897  26.003  1.00  0.00    +0.010 A 
ENDROOT
BRANCH   1   7
ATOM      7  C   UNL     1      82.717 158.922  26.637  1.00  0.00    +0.139 C 
BRANCH   7   8
ATOM      8  N   UNL     1      83.431 158.886  27.917  1.00  0.00    -0.266 N 
ATOM      9  C   UNL     1      85.906 159.972  30.398  1.00  0.00    +0.054 A 
ATOM     10  C   UNL     1      86.101 159.388  31.646  1.00  0.00    +0.027 A 
ATOM     11  C   UNL     1      84.883 159.447  29.601  1.00  0.00    +0.076 A 
ATOM     12  C   UNL     1      85.314 158.338  32.093  1.00  0.00    +0.003 A 
ATOM     13  C   UNL     1      84.113 158.384  30.064  1.00  0.00    +0.055 A 
ATOM     14  C   UNL     1      84.430 159.810  28.235  1.00  0.00    +0.264 C 
ATOM     15  C   UNL     1      84.293 157.809  31.308  1.00  0.00    +0.015 A 
ATOM     16  C   UNL     1      83.140 158.032  28.990  1.00  0.00    +0.262 C 
ATOM     17  O   UNL     1      84.769 160.726  27.523  1.00  0.00    -0.268 OA
ATOM     18  O   UNL     1      82.289 157.165  28.994  1.00  0.00    -0.269 OA
BRANCH   9  19
ATOM     19  N   UNL     1      86.699 161.037  29.899  1.00  0.00    -0.326 N 
ATOM     20  C   UNL     1      86.406 162.364  29.922  1.00  0.00    +0.221 C 
ATOM     21  O   UNL     1      85.416 162.821  30.480  1.00  0.00    -0.275 OA
ATOM     22  H   UNL     1      87.558 160.787  29.490  1.00  0.00    +0.169 HD
ATOM     23  C   UNL     1      87.406 163.244  29.234  1.00  0.00    +0.114 C 
ENDBRANCH   9  19
ENDBRANCH   7   8
BRANCH   7  24
ATOM     24  C   UNL     1      81.201 158.801  26.878  1.00  0.00    +0.167 C 
BRANCH  24  25
ATOM     25  S   UNL     1      80.564 160.463  26.994  1.00  0.00    +0.149 S 
ATOM     26  O   UNL     1      79.371 160.572  26.226  1.00  0.00    -0.229 OA
ATOM     27  O   UNL     1      81.610 161.407  26.704  1.00  0.00    -0.229 OA
ATOM     28  C   UNL     1      80.081 160.656  28.668  1.00  0.00    +0.158 C 
ENDBRANCH  24  25
ENDBRANCH   7  24
ENDBRANCH   1   7
BRANCH   3  29
ATOM     29  O   UNL     1      83.096 157.197  21.997  1.00  0.00    -0.490 OA
BRANCH  29  30
ATOM     30  C   UNL     1      82.036 158.073  21.590  1.00  0.00    +0.226 C 
ATOM     31  C   UNL     1      81.961 157.953  20.092  1.00  0.00    +0.049 C 
ENDBRANCH  29  30
ENDBRANCH   3  29
BRANCH   4  32
ATOM     32  O   UNL     1      84.660 155.279  22.720  1.00  0.00    -0.493 OA
ATOM     33  C   UNL     1      85.657 154.293  23.064  1.00  0.00    +0.278 C 
ENDBRANCH   4  32
TORSDOF 8
ENDMDL
MODEL 2
REMARK VINA RESULT:    -8.905      1.462      2.599
REMARK INTER + INTRA:         -14.231
REMARK INTER:                 -13.293
REMARK INTRA:                  -0.938
REMARK UNBOUND:                -1.160
REMARK SMILES CCOc1cc([C@@H](CS(C)(=O)=O)N2C(=O)c3cccc(NC(C)=O)c3C2=O)ccc1OC
REMARK SMILES IDX 6 1 5 2 4 3 30 4 29 5 28 6 7 7 13 8 20 9 19 10 25 11 18 12
REMARK SMILES IDX 16 13 26 14 17 15 14 16 27 17 15 18 21 19 22 20 24 21 23 23
REMARK SMILES IDX 8 24 9 25 11 26 12 27 10 28 3 29 2 30 1 31 31 32 32 33
REMARK H PARENT 21 22
ROOT
ATOM      1  C   UNL     1      82.459 158.598  25.472  1.00  0.00    -0.020 A 
ATOM      2  C   UNL     1      83.434 157.701  25.039  1.00  0.00    +0.056 A 
ATOM      3  C   UNL     1      83.531 157.356  23.696  1.00  0.00    +0.161 A 
ATOM      4  C   UNL     1      82.673 157.951  22.751  1.00  0.00    +0.160 A 
ATOM      5  C   UNL     1      81.712 158.852  23.177  1.00  0.00    +0.051 A 
ATOM      6  C   UNL     1      81.613 159.193  24.529  1.00  0.00    +0.010 A 
ENDROOT
BRANCH   1   7
ATOM      7  C   UNL     1      82.375 159.004  26.935  1.00  0.00    +0.139 C 
BRANCH   7   8
ATOM      8  N   UNL     1      83.594 158.709  27.696  1.00  0.00    -0.266 N 
ATOM      9  C   UNL     1      86.774 159.489  29.350  1.00  0.00    +0.054 A 
ATOM     10  C   UNL     1      87.588 158.567  30.000  1.00  0.00    +0.027 A 
ATOM     11  C   UNL     1      85.573 159.013  28.813  1.00  0.00    +0.076 A 
ATOM     12  C   UNL     1      87.229 157.233  30.123  1.00  0.00    +0.003 A 
ATOM     13  C   UNL     1      85.237 157.668  28.936  1.00  0.00    +0.055 A 
ATOM     14  C   UNL     1      84.505 159.707  28.051  1.00  0.00    +0.264 C 
ATOM     15  C   UNL     1      86.036 156.750  29.592  1.00  0.00    +0.015 A 
ATOM     16  C   UNL     1      83.933 157.464  28.243  1.00  0.00    +0.262 C 
ATOM     17  O   UNL     1      84.365 160.883  27.807  1.00  0.00    -0.268 OA
ATOM     18  O   UNL     1      83.292 156.439  28.122  1.00  0.00    -0.269 OA
BRANCH   9  19
ATOM     19  N   UNL     1      87.113 160.857  29.191  1.00  0.00    -0.326 N 
ATOM     20  C   UNL     1      86.580 161.921  29.846  1.00  0.00    +0.221 C 
ATOM     21  O   UNL     1      85.767 161.807  30.756  1.00  0.00    -0.275 OA
ATOM     22  H   UNL     1      87.814 161.059  28.530  1.00  0.00    +0.169 HD
ATOM     23  C   UNL     1      87.082 163.259  29.396  1.00  0.00    +0.114 C 
ENDBRANCH   9  19
ENDBRANCH   7   8
BRANCH   7  24
ATOM     24  C   UNL     1      81.145 158.458  27.683  1.00  0.00    +0.167 C 
BRANCH  24  25
ATOM     25  S   UNL     1      80.342 159.857  28.444  1.00  0.00    +0.149 S 
ATOM     26  O   UNL     1      81.321 160.712  29.024  1.00  0.00    -0.229 OA
ATOM     27  O   UNL     1      79.286 159.402  29.309  1.00  0.00    -0.229 OA
ATOM     28  C   UNL     1      79.634 160.759  27.118  1.00  0.00    +0.158 C 
ENDBRANCH  24  25
ENDBRANCH   7  24
ENDBRANCH   1   7
BRANCH   3  29
ATOM     29  O   UNL     1      84.434 156.473  23.194  1.00  0.00    -0.490 OA
BRANCH  29  30
ATOM     30  C   UNL     1      84.843 155.400  24.053  1.00  0.00    +0.226 C 
ATOM     31  C   UNL     1      85.670 154.482  23.193  1.00  0.00    +0.049 C 
ENDBRANCH  29  30
ENDBRANCH   3  29
BRANCH   4  32
ATOM     32  O   UNL     1      82.840 157.522  21.460  1.00  0.00    -0.493 OA
ATOM     33  C   UNL     1      81.949 158.076  20.468  1.00  0.00    +0.278 C 
ENDBRANCH   4  32
TORSDOF 8
ENDMDL
MODEL 3
REMARK VINA RESULT:    -8.871      2.115      3.162
REMARK INTER + INTRA:         -14.181
REMARK INTER:                 -13.166
REMARK INTRA:                  -1.015
REMARK UNBOUND:                -1.160
REMARK SMILES CCOc1cc([C@@H](CS(C)(=O)=O)N2C(=O)c3cccc(NC(C)=O)c3C2=O)ccc1OC
REMARK SMILES IDX 6 1 5 2 4 3 30 4 29 5 28 6 7 7 13 8 20 9 19 10 25 11 18 12
REMARK SMILES IDX 16 13 26 14 17 15 14 16 27 17 15 18 21 19 22 20 24 21 23 23
REMARK SMILES IDX 8 24 9 25 11 26 12 27 10 28 3 29 2 30 1 31 31 32 32 33
REMARK H PARENT 21 22
ROOT
ATOM      1  C   UNL     1      82.587 158.584  25.558  1.00  0.00    -0.020 A 
ATOM      2  C   UNL     1      83.408 157.559  25.091  1.00  0.00    +0.056 A 
ATOM      3  C   UNL     1      83.444 157.244  23.737  1.00  0.00    +0.161 A 
ATOM      4  C   UNL     1      82.687 157.995  22.818  1.00  0.00    +0.160 A 
ATOM      5  C   UNL     1      81.882 159.023  23.278  1.00  0.00    +0.051 A 
ATOM      6  C   UNL     1      81.842 159.333  24.641  1.00  0.00    +0.010 A 
ENDROOT
BRANCH   1   7
ATOM      7  C   UNL     1      82.573 158.952  27.034  1.00  0.00    +0.139 C 
BRANCH   7   8
ATOM      8  N   UNL     1      83.452 158.113  27.856  1.00  0.00    -0.266 N 
ATOM      9  C   UNL     1      86.489 157.297  29.743  1.00  0.00    +0.054 A 
ATOM     10  C   UNL     1      86.728 156.094  30.400  1.00  0.00    +0.027 A 
ATOM     11  C   UNL     1      85.251 157.443  29.109  1.00  0.00    +0.076 A 
ATOM     12  C   UNL     1      85.781 155.082  30.437  1.00  0.00    +0.003 A 
ATOM     13  C   UNL     1      84.320 156.411  29.148  1.00  0.00    +0.055 A 
ATOM     14  C   UNL     1      84.692 158.565  28.314  1.00  0.00    +0.264 C 
ATOM     15  C   UNL     1      84.546 155.218  29.810  1.00  0.00    +0.015 A 
ATOM     16  C   UNL     1      83.129 156.848  28.365  1.00  0.00    +0.262 C 
ATOM     17  O   UNL     1      85.134 159.673  28.117  1.00  0.00    -0.268 OA
ATOM     18  O   UNL     1      82.096 156.242  28.156  1.00  0.00    -0.269 OA
BRANCH   9  19
ATOM     19  N   UNL     1      87.438 158.350  29.669  1.00  0.00    -0.326 N 
ATOM     20  C   UNL     1      88.714 158.279  29.209  1.00  0.00    +0.221 C 
ATOM     21  O   UNL     1      89.187 157.269  28.701  1.00  0.00    -0.275 OA
ATOM     22  H   UNL     1      87.137 159.231  29.987  1.00  0.00    +0.169 HD
ATOM     23  C   UNL     1      89.506 159.544  29.340  1.00  0.00    +0.114 C 
ENDBRANCH   9  19
ENDBRANCH   7   8
BRANCH   7  24
ATOM     24  C   UNL     1      81.171 159.019  27.666  1.00  0.00    +0.167 C 
BRANCH  24  25
ATOM     25  S   UNL     1      81.059 160.589  28.506  1.00  0.00    +0.149 S 
ATOM     26  O   UNL     1      80.313 161.504  27.711  1.00  0.00    -0.229 OA
ATOM     27  O   UNL     1      82.369 161.013  28.923  1.00  0.00    -0.229 OA
ATOM     28  C   UNL     1      80.087 160.281  29.931  1.00  0.00    +0.158 C 
ENDBRANCH  24  25
ENDBRANCH   7  24
ENDBRANCH   1   7
BRANCH   3  29
ATOM     29  O   UNL     1      84.195 156.245  23.202  1.00  0.00    -0.490 OA
BRANCH  29  30
ATOM     30  C   UNL     1      84.916 155.409  24.117  1.00  0.00    +0.226 C 
ATOM     31  C   UNL     1      85.644 154.405  23.265  1.00  0.00    +0.049 C 
ENDBRANCH  29  30
ENDBRANCH   3  29
BRANCH   4  32
ATOM     32  O   UNL     1      82.780 157.585  21.513  1.00  0.00    -0.493 OA
ATOM     33  C   UNL     1      81.743 158.031  20.614  1.00  0.00    +0.278 C 
ENDBRANCH   4  32
TORSDOF 8
ENDMDL
MODEL 4
REMARK VINA RESULT:    -8.785      1.183      2.478
REMARK INTER + INTRA:         -14.054
REMARK INTER:                 -13.012
REMARK INTRA:                  -1.042
REMARK UNBOUND:                -1.160
REMARK SMILES CCOc1cc([C@@H](CS(C)(=O)=O)N2C(=O)c3cccc(NC(C)=O)c3C2=O)ccc1OC
REMARK SMILES IDX 6 1 5 2 4 3 30 4 29 5 28 6 7 7 13 8 20 9 19 10 25 11 18 12
REMARK SMILES IDX 16 13 26 14 17 15 14 16 27 17 15 18 21 19 22 20 24 21 23 23
REMARK SMILES IDX 8 24 9 25 11 26 12 27 10 28 3 29 2 30 1 31 31 32 32 33
REMARK H PARENT 21 22
ROOT
ATOM      1  C   UNL     1      83.457 157.458  25.583  1.00  0.00    -0.020 A 
ATOM      2  C   UNL     1      84.163 156.352  26.054  1.00  0.00    +0.056 A 
ATOM      3  C   UNL     1      84.747 155.456  25.167  1.00  0.00    +0.161 A 
ATOM      4  C   UNL     1      84.672 155.687  23.780  1.00  0.00    +0.160 A 
ATOM      5  C   UNL     1      83.983 156.792  23.310  1.00  0.00    +0.051 A 
ATOM      6  C   UNL     1      83.392 157.688  24.204  1.00  0.00    +0.010 A 
ENDROOT
BRANCH   1   7
ATOM      7  C   UNL     1      82.848 158.458  26.553  1.00  0.00    +0.139 C 
BRANCH   7   8
ATOM      8  N   UNL     1      83.534 158.511  27.849  1.00  0.00    -0.266 N 
ATOM      9  C   UNL     1      85.859 159.851  30.350  1.00  0.00    +0.054 A 
ATOM     10  C   UNL     1      86.072 159.317  31.616  1.00  0.00    +0.027 A 
ATOM     11  C   UNL     1      84.899 159.227  29.546  1.00  0.00    +0.076 A 
ATOM     12  C   UNL     1      85.360 158.219  32.075  1.00  0.00    +0.003 A 
ATOM     13  C   UNL     1      84.205 158.119  30.021  1.00  0.00    +0.055 A 
ATOM     14  C   UNL     1      84.450 159.519  28.162  1.00  0.00    +0.264 C 
ATOM     15  C   UNL     1      84.402 157.591  31.284  1.00  0.00    +0.015 A 
ATOM     16  C   UNL     1      83.287 157.664  28.938  1.00  0.00    +0.262 C 
ATOM     17  O   UNL     1      84.731 160.442  27.433  1.00  0.00    -0.268 OA
ATOM     18  O   UNL     1      82.507 156.732  28.948  1.00  0.00    -0.269 OA
BRANCH   9  19
ATOM     19  N   UNL     1      86.577 160.964  29.839  1.00  0.00    -0.326 N 
ATOM     20  C   UNL     1      86.225 162.274  29.907  1.00  0.00    +0.221 C 
ATOM     21  O   UNL     1      85.244 162.672  30.523  1.00  0.00    -0.275 OA
ATOM     22  H   UNL     1      87.426 160.763  29.383  1.00  0.00    +0.169 HD
ATOM     23  C   UNL     1      87.148 163.216  29.194  1.00  0.00    +0.114 C 
ENDBRANCH   9  19
ENDBRANCH   7   8
BRANCH   7  24
ATOM     24  C   UNL     1      81.332 158.303  26.769  1.00  0.00    +0.167 C 
BRANCH  24  25
ATOM     25  S   UNL     1      80.619 159.931  26.614  1.00  0.00    +0.149 S 
ATOM     26  O   UNL     1      79.722 159.956  25.510  1.00  0.00    -0.229 OA
ATOM     27  O   UNL     1      81.662 160.922  26.623  1.00  0.00    -0.229 OA
ATOM     28  C   UNL     1      79.632 160.141  28.047  1.00  0.00    +0.158 C 
ENDBRANCH  24  25
ENDBRANCH   7  24
ENDBRANCH   1   7
BRANCH   3  29
ATOM     29  O   UNL     1      85.429 154.341  25.540  1.00  0.00    -0.490 OA
BRANCH  29  30
ATOM     30  C   UNL     1      85.068 153.744  26.793  1.00  0.00    +0.226 C 
ATOM     31  C   UNL     1      85.053 152.260  26.549  1.00  0.00    +0.049 C 
ENDBRANCH  29  30
ENDBRANCH   3  29
BRANCH   4  32
ATOM     32  O   UNL     1      85.262 154.729  22.997  1.00  0.00    -0.493 OA
ATOM     33  C   UNL     1      86.561 155.042  22.450  1.00  0.00    +0.278 C 
ENDBRANCH   4  32
TORSDOF 8
ENDMDL
MODEL 5
REMARK VINA RESULT:    -8.255      2.088      4.181
REMARK INTER + INTRA:         -13.276
REMARK INTER:                 -12.399
REMARK INTRA:                  -0.877
REMARK UNBOUND:                -1.160
REMARK SMILES CCOc1cc([C@@H](CS(C)(=O)=O)N2C(=O)c3cccc(NC(C)=O)c3C2=O)ccc1OC
REMARK SMILES IDX 6 1 5 2 4 3 30 4 29 5 28 6 7 7 13 8 20 9 19 10 25 11 18 12
REMARK SMILES IDX 16 13 26 14 17 15 14 16 27 17 15 18 21 19 22 20 24 21 23 23
REMARK SMILES IDX 8 24 9 25 11 26 12 27 10 28 3 29 2 30 1 31 31 32 32 33
REMARK H PARENT 21 22
ROOT
ATOM      1  C   UNL     1      82.557 158.610  25.630  1.00  0.00    -0.020 A 
ATOM      2  C   UNL     1      83.532 157.717  25.187  1.00  0.00    +0.056 A 
ATOM      3  C   UNL     1      83.583 157.331  23.853  1.00  0.00    +0.161 A 
ATOM      4  C   UNL     1      82.679 157.880  22.924  1.00  0.00    +0.160 A 
ATOM      5  C   UNL     1      81.718 158.777  23.359  1.00  0.00    +0.051 A 
ATOM      6  C   UNL     1      81.664 159.159  24.702  1.00  0.00    +0.010 A 
ENDROOT
BRANCH   1   7
ATOM      7  C   UNL     1      82.521 159.060  27.082  1.00  0.00    +0.139 C 
BRANCH   7   8
ATOM      8  N   UNL     1      83.717 158.681  27.842  1.00  0.00    -0.266 N 
ATOM      9  C   UNL     1      85.902 156.418  29.730  1.00  0.00    +0.054 A 
ATOM     10  C   UNL     1      87.128 156.766  30.288  1.00  0.00    +0.027 A 
ATOM     11  C   UNL     1      85.227 157.407  29.006  1.00  0.00    +0.076 A 
ATOM     12  C   UNL     1      87.669 158.033  30.132  1.00  0.00    +0.003 A 
ATOM     13  C   UNL     1      85.782 158.675  28.871  1.00  0.00    +0.055 A 
ATOM     14  C   UNL     1      83.914 157.380  28.314  1.00  0.00    +0.264 C 
ATOM     15  C   UNL     1      87.005 159.023  29.413  1.00  0.00    +0.015 A 
ATOM     16  C   UNL     1      84.824 159.505  28.085  1.00  0.00    +0.262 C 
ATOM     17  O   UNL     1      83.159 156.457  28.116  1.00  0.00    -0.268 OA
ATOM     18  O   UNL     1      84.931 160.667  27.745  1.00  0.00    -0.269 OA
BRANCH   9  19
ATOM     19  N   UNL     1      85.308 155.139  29.880  1.00  0.00    -0.326 N 
ATOM     20  C   UNL     1      84.651 154.658  30.968  1.00  0.00    +0.221 C 
ATOM     21  O   UNL     1      84.410 155.338  31.958  1.00  0.00    -0.275 OA
ATOM     22  H   UNL     1      85.380 154.530  29.110  1.00  0.00    +0.169 HD
ATOM     23  C   UNL     1      84.210 153.229  30.861  1.00  0.00    +0.114 C 
ENDBRANCH   9  19
ENDBRANCH   7   8
BRANCH   7  24
ATOM     24  C   UNL     1      81.256 158.643  27.853  1.00  0.00    +0.167 C 
BRANCH  24  25
ATOM     25  S   UNL     1      80.571 160.131  28.561  1.00  0.00    +0.149 S 
ATOM     26  O   UNL     1      81.622 161.040  28.868  1.00  0.00    -0.229 OA
ATOM     27  O   UNL     1      79.675 159.791  29.635  1.00  0.00    -0.229 OA
ATOM     28  C   UNL     1      79.648 160.873  27.271  1.00  0.00    +0.158 C 
ENDBRANCH  24  25
ENDBRANCH   7  24
ENDBRANCH   1   7
BRANCH   3  29
ATOM     29  O   UNL     1      84.483 156.448  23.344  1.00  0.00    -0.490 OA
BRANCH  29  30
ATOM     30  C   UNL     1      84.866 155.350  24.184  1.00  0.00    +0.226 C 
ATOM     31  C   UNL     1      85.593 154.385  23.287  1.00  0.00    +0.049 C 
ENDBRANCH  29  30
ENDBRANCH   3  29
BRANCH   4  32
ATOM     32  O   UNL     1      82.804 157.413  21.642  1.00  0.00    -0.493 OA
ATOM     33  C   UNL     1      81.933 157.994  20.648  1.00  0.00    +0.278 C 
ENDBRANCH   4  32
TORSDOF 8
ENDMDL
MODEL 6
REMARK VINA RESULT:    -8.027      2.744      7.478
REMARK INTER + INTRA:         -12.941
REMARK INTER:                 -12.504
REMARK INTRA:                  -0.437
REMARK UNBOUND:                -1.160
REMARK SMILES CCOc1cc([C@@H](CS(C)(=O)=O)N2C(=O)c3cccc(NC(C)=O)c3C2=O)ccc1OC
REMARK SMILES IDX 6 1 5 2 4 3 30 4 29 5 28 6 7 7 13 8 20 9 19 10 25 11 18 12
REMARK SMILES IDX 16 13 26 14 17 15 14 16 27 17 15 18 21 19 22 20 24 21 23 23
REMARK SMILES IDX 8 24 9 25 11 26 12 27 10 28 3 29 2 30 1 31 31 32 32 33
REMARK H PARENT 21 22
ROOT
ATOM      1  C   UNL     1      85.502 161.057  30.053  1.00  0.00    -0.020 A 
ATOM      2  C   UNL     1      86.680 160.330  29.892  1.00  0.00    +0.056 A 
ATOM      3  C   UNL     1      87.851 160.962  29.491  1.00  0.00    +0.161 A 
ATOM      4  C   UNL     1      87.868 162.356  29.291  1.00  0.00    +0.160 A 
ATOM      5  C   UNL     1      86.703 163.082  29.464  1.00  0.00    +0.051 A 
ATOM      6  C   UNL     1      85.525 162.444  29.862  1.00  0.00    +0.010 A 
ENDROOT
BRANCH   1   7
ATOM      7  C   UNL     1      84.229 160.374  30.526  1.00  0.00    +0.139 C 
BRANCH   7   8
ATOM      8  N   UNL     1      83.214 160.233  29.476  1.00  0.00    -0.266 N 
ATOM      9  C   UNL     1      81.752 158.871  26.400  1.00  0.00    +0.054 A 
ATOM     10  C   UNL     1      80.530 159.251  25.855  1.00  0.00    +0.027 A 
ATOM     11  C   UNL     1      82.128 159.472  27.606  1.00  0.00    +0.076 A 
ATOM     12  C   UNL     1      79.708 160.178  26.478  1.00  0.00    +0.003 A 
ATOM     13  C   UNL     1      81.295 160.409  28.209  1.00  0.00    +0.055 A 
ATOM     14  C   UNL     1      83.351 159.316  28.431  1.00  0.00    +0.264 C 
ATOM     15  C   UNL     1      80.073 160.781  27.678  1.00  0.00    +0.015 A 
ATOM     16  C   UNL     1      81.975 160.887  29.446  1.00  0.00    +0.262 C 
ATOM     17  O   UNL     1      84.274 158.543  28.312  1.00  0.00    -0.268 OA
ATOM     18  O   UNL     1      81.585 161.703  30.258  1.00  0.00    -0.269 OA
BRANCH   9  19
ATOM     19  N   UNL     1      82.626 157.938  25.785  1.00  0.00    -0.326 N 
ATOM     20  C   UNL     1      82.967 157.868  24.472  1.00  0.00    +0.221 C 
ATOM     21  O   UNL     1      82.609 158.697  23.644  1.00  0.00    -0.275 OA
ATOM     22  H   UNL     1      83.032 157.264  26.377  1.00  0.00    +0.169 HD
ATOM     23  C   UNL     1      83.847 156.712  24.106  1.00  0.00    +0.114 C 
ENDBRANCH   9  19
ENDBRANCH   7   8
BRANCH   7  24
ATOM     24  C   UNL     1      83.597 160.992  31.786  1.00  0.00    +0.167 C 
BRANCH  24  25
ATOM     25  S   UNL     1      84.144 160.011  33.172  1.00  0.00    +0.149 S 
ATOM     26  O   UNL     1      83.047 159.760  34.042  1.00  0.00    -0.229 OA
ATOM     27  O   UNL     1      85.313 160.610  33.761  1.00  0.00    -0.229 OA
ATOM     28  C   UNL     1      84.589 158.459  32.491  1.00  0.00    +0.158 C 
ENDBRANCH  24  25
ENDBRANCH   7  24
ENDBRANCH   1   7
BRANCH   3  29
ATOM     29  O   UNL     1      89.035 160.325  29.286  1.00  0.00    -0.490 OA
BRANCH  29  30
ATOM     30  C   UNL     1      89.052 158.904  29.475  1.00  0.00    +0.226 C 
ATOM     31  C   UNL     1      90.273 158.618  30.307  1.00  0.00    +0.049 C 
ENDBRANCH  29  30
ENDBRANCH   3  29
BRANCH   4  32
ATOM     32  O   UNL     1      89.068 162.871  28.875  1.00  0.00    -0.493 OA
ATOM     33  C   UNL     1      89.252 163.032  27.452  1.00  0.00    +0.278 C 
ENDBRANCH   4  32
TORSDOF 8
ENDMDL
MODEL 7
REMARK VINA RESULT:    -8.021      2.677      4.945
REMARK INTER + INTRA:         -12.932
REMARK INTER:                 -11.616
REMARK INTRA:                  -1.316
REMARK UNBOUND:                -1.160
REMARK SMILES CCOc1cc([C@@H](CS(C)(=O)=O)N2C(=O)c3cccc(NC(C)=O)c3C2=O)ccc1OC
REMARK SMILES IDX 6 1 5 2 4 3 30 4 29 5 28 6 7 7 13 8 20 9 19 10 25 11 18 12
REMARK SMILES IDX 16 13 26 14 17 15 14 16 27 17 15 18 21 19 22 20 24 21 23 23
REMARK SMILES IDX 8 24 9 25 11 26 12 27 10 28 3 29 2 30 1 31 31 32 32 33
REMARK H PARENT 21 22
ROOT
ATOM      1  C   UNL     1      82.266 160.172  27.937  1.00  0.00    -0.020 A 
ATOM      2  C   UNL     1      82.978 159.542  26.917  1.00  0.00    +0.056 A 
ATOM      3  C   UNL     1      82.356 159.215  25.718  1.00  0.00    +0.161 A 
ATOM      4  C   UNL     1      81.009 159.564  25.504  1.00  0.00    +0.160 A 
ATOM      5  C   UNL     1      80.303 160.202  26.510  1.00  0.00    +0.051 A 
ATOM      6  C   UNL     1      80.929 160.524  27.718  1.00  0.00    +0.010 A 
ENDROOT
BRANCH   1   7
ATOM      7  C   UNL     1      82.954 160.561  29.236  1.00  0.00    +0.139 C 
BRANCH   7   8
ATOM      8  N   UNL     1      84.241 159.888  29.442  1.00  0.00    -0.266 N 
ATOM      9  C   UNL     1      86.454 157.060  30.193  1.00  0.00    +0.054 A 
ATOM     10  C   UNL     1      87.843 157.118  30.240  1.00  0.00    +0.027 A 
ATOM     11  C   UNL     1      85.777 158.235  29.847  1.00  0.00    +0.076 A 
ATOM     12  C   UNL     1      88.536 158.282  29.947  1.00  0.00    +0.003 A 
ATOM     13  C   UNL     1      86.491 159.396  29.569  1.00  0.00    +0.055 A 
ATOM     14  C   UNL     1      84.326 158.523  29.729  1.00  0.00    +0.264 C 
ATOM     15  C   UNL     1      87.872 159.456  29.601  1.00  0.00    +0.015 A 
ATOM     16  C   UNL     1      85.504 160.472  29.269  1.00  0.00    +0.262 C 
ATOM     17  O   UNL     1      83.378 157.776  29.798  1.00  0.00    -0.268 OA
ATOM     18  O   UNL     1      85.714 161.632  28.976  1.00  0.00    -0.269 OA
BRANCH   9  19
ATOM     19  N   UNL     1      85.708 155.893  30.500  1.00  0.00    -0.326 N 
ATOM     20  C   UNL     1      85.330 154.907  29.644  1.00  0.00    +0.221 C 
ATOM     21  O   UNL     1      85.680 154.870  28.471  1.00  0.00    -0.275 OA
ATOM     22  H   UNL     1      85.434 155.784  31.439  1.00  0.00    +0.169 HD
ATOM     23  C   UNL     1      84.468 153.840  30.249  1.00  0.00    +0.114 C 
ENDBRANCH   9  19
ENDBRANCH   7   8
BRANCH   7  24
ATOM     24  C   UNL     1      82.080 160.417  30.495  1.00  0.00    +0.167 C 
BRANCH  24  25
ATOM     25  S   UNL     1      82.393 161.854  31.506  1.00  0.00    +0.149 S 
ATOM     26  O   UNL     1      81.196 162.237  32.174  1.00  0.00    -0.229 OA
ATOM     27  O   UNL     1      83.049 162.867  30.723  1.00  0.00    -0.229 OA
ATOM     28  C   UNL     1      83.492 161.307  32.756  1.00  0.00    +0.158 C 
ENDBRANCH  24  25
ENDBRANCH   7  24
ENDBRANCH   1   7
BRANCH   3  29
ATOM     29  O   UNL     1      82.969 158.579  24.685  1.00  0.00    -0.490 OA
BRANCH  29  30
ATOM     30  C   UNL     1      83.738 157.411  25.001  1.00  0.00    +0.226 C 
ATOM     31  C   UNL     1      84.173 156.838  23.680  1.00  0.00    +0.049 C 
ENDBRANCH  29  30
ENDBRANCH   3  29
BRANCH   4  32
ATOM     32  O   UNL     1      80.490 159.175  24.297  1.00  0.00    -0.493 OA
ATOM     33  C   UNL     1      79.178 158.574  24.314  1.00  0.00    +0.278 C 
ENDBRANCH   4  32
TORSDOF 8
ENDMDL
MODEL 8
REMARK VINA RESULT:    -7.925      2.463      7.887
REMARK INTER + INTRA:         -12.791
REMARK INTER:                 -12.169
REMARK INTRA:                  -0.622
REMARK UNBOUND:                -1.160
REMARK SMILES CCOc1cc([C@@H](CS(C)(=O)=O)N2C(=O)c3cccc(NC(C)=O)c3C2=O)ccc1OC
REMARK SMILES IDX 6 1 5 2 4 3 30 4 29 5 28 6 7 7 13 8 20 9 19 10 25 11 18 12
REMARK SMILES IDX 16 13 26 14 17 15 14 16 27 17 15 18 21 19 22 20 24 21 23 23
REMARK SMILES IDX 8 24 9 25 11 26 12 27 10 28 3 29 2 30 1 31 31 32 32 33
REMARK H PARENT 21 22
ROOT
ATOM      1  C   UNL     1      84.299 159.171  29.572  1.00  0.00    -0.020 A 
ATOM      2  C   UNL     1      85.421 159.995  29.493  1.00  0.00    +0.056 A 
ATOM      3  C   UNL     1      85.468 161.194  30.194  1.00  0.00    +0.161 A 
ATOM      4  C   UNL     1      84.399 161.564  31.031  1.00  0.00    +0.160 A 
ATOM      5  C   UNL     1      83.289 160.741  31.122  1.00  0.00    +0.051 A 
ATOM      6  C   UNL     1      83.242 159.538  30.412  1.00  0.00    +0.010 A 
ENDROOT
BRANCH   1   7
ATOM      7  C   UNL     1      84.261 157.842  28.834  1.00  0.00    +0.139 C 
BRANCH   7   8
ATOM      8  N   UNL     1      83.830 157.960  27.437  1.00  0.00    -0.266 N 
ATOM      9  C   UNL     1      83.584 156.958  23.917  1.00  0.00    +0.054 A 
ATOM     10  C   UNL     1      82.895 157.655  22.929  1.00  0.00    +0.027 A 
ATOM     11  C   UNL     1      83.531 157.472  25.216  1.00  0.00    +0.076 A 
ATOM     12  C   UNL     1      82.177 158.806  23.214  1.00  0.00    +0.003 A 
ATOM     13  C   UNL     1      82.815 158.636  25.478  1.00  0.00    +0.055 A 
ATOM     14  C   UNL     1      84.159 157.000  26.476  1.00  0.00    +0.264 C 
ATOM     15  C   UNL     1      82.117 159.326  24.504  1.00  0.00    +0.015 A 
ATOM     16  C   UNL     1      82.972 158.945  26.928  1.00  0.00    +0.262 C 
ATOM     17  O   UNL     1      84.781 155.988  26.702  1.00  0.00    -0.268 OA
ATOM     18  O   UNL     1      82.504 159.872  27.560  1.00  0.00    -0.269 OA
BRANCH   9  19
ATOM     19  N   UNL     1      84.343 155.786  23.663  1.00  0.00    -0.326 N 
ATOM     20  C   UNL     1      85.492 155.687  22.945  1.00  0.00    +0.221 C 
ATOM     21  O   UNL     1      86.079 156.660  22.486  1.00  0.00    -0.275 OA
ATOM     22  H   UNL     1      83.997 154.950  24.050  1.00  0.00    +0.169 HD
ATOM     23  C   UNL     1      86.015 154.293  22.776  1.00  0.00    +0.114 C 
ENDBRANCH   9  19
ENDBRANCH   7   8
BRANCH   7  24
ATOM     24  C   UNL     1      83.454 156.738  29.540  1.00  0.00    +0.167 C 
BRANCH  24  25
ATOM     25  S   UNL     1      84.599 155.850  30.582  1.00  0.00    +0.149 S 
ATOM     26  O   UNL     1      84.644 156.459  31.868  1.00  0.00    -0.229 OA
ATOM     27  O   UNL     1      85.854 155.687  29.899  1.00  0.00    -0.229 OA
ATOM     28  C   UNL     1      83.877 154.271  30.819  1.00  0.00    +0.158 C 
ENDBRANCH  24  25
ENDBRANCH   7  24
ENDBRANCH   1   7
BRANCH   3  29
ATOM     29  O   UNL     1      86.510 162.066  30.153  1.00  0.00    -0.490 OA
BRANCH  29  30
ATOM     30  C   UNL     1      86.671 162.835  28.952  1.00  0.00    +0.226 C 
ATOM     31  C   UNL     1      88.136 162.768  28.618  1.00  0.00    +0.049 C 
ENDBRANCH  29  30
ENDBRANCH   3  29
BRANCH   4  32
ATOM     32  O   UNL     1      84.539 162.776  31.657  1.00  0.00    -0.493 OA
ATOM     33  C   UNL     1      84.186 162.834  33.055  1.00  0.00    +0.278 C 
ENDBRANCH   4  32
TORSDOF 8
ENDMDL
MODEL 9
REMARK VINA RESULT:    -7.880      2.269      2.954
REMARK INTER + INTRA:         -12.726
REMARK INTER:                 -11.815
REMARK INTRA:                  -0.911
REMARK UNBOUND:                -1.160
REMARK SMILES CCOc1cc([C@@H](CS(C)(=O)=O)N2C(=O)c3cccc(NC(C)=O)c3C2=O)ccc1OC
REMARK SMILES IDX 6 1 5 2 4 3 30 4 29 5 28 6 7 7 13 8 20 9 19 10 25 11 18 12
REMARK SMILES IDX 16 13 26 14 17 15 14 16 27 17 15 18 21 19 22 20 24 21 23 23
REMARK SMILES IDX 8 24 9 25 11 26 12 27 10 28 3 29 2 30 1 31 31 32 32 33
REMARK H PARENT 21 22
ROOT
ATOM      1  C   UNL     1      83.094 157.430  27.512  1.00  0.00    -0.020 A 
ATOM      2  C   UNL     1      83.912 157.065  26.444  1.00  0.00    +0.056 A 
ATOM      3  C   UNL     1      84.470 155.793  26.385  1.00  0.00    +0.161 A 
ATOM      4  C   UNL     1      84.172 154.844  27.381  1.00  0.00    +0.160 A 
ATOM      5  C   UNL     1      83.348 155.201  28.435  1.00  0.00    +0.051 A 
ATOM      6  C   UNL     1      82.793 156.482  28.497  1.00  0.00    +0.010 A 
ENDROOT
BRANCH   1   7
ATOM      7  C   UNL     1      82.455 158.809  27.561  1.00  0.00    +0.139 C 
BRANCH   7   8
ATOM      8  N   UNL     1      82.884 159.613  28.711  1.00  0.00    -0.266 N 
ATOM      9  C   UNL     1      85.224 161.610  30.709  1.00  0.00    +0.054 A 
ATOM     10  C   UNL     1      84.940 162.182  31.946  1.00  0.00    +0.027 A 
ATOM     11  C   UNL     1      84.189 160.916  30.074  1.00  0.00    +0.076 A 
ATOM     12  C   UNL     1      83.685 162.080  32.526  1.00  0.00    +0.003 A 
ATOM     13  C   UNL     1      82.940 160.816  30.679  1.00  0.00    +0.055 A 
ATOM     14  C   UNL     1      84.158 160.181  28.785  1.00  0.00    +0.264 C 
ATOM     15  C   UNL     1      82.648 161.392  31.901  1.00  0.00    +0.015 A 
ATOM     16  C   UNL     1      82.070 159.999  29.786  1.00  0.00    +0.262 C 
ATOM     17  O   UNL     1      84.997 160.100  27.917  1.00  0.00    -0.268 OA
ATOM     18  O   UNL     1      80.909 159.680  29.945  1.00  0.00    -0.269 OA
BRANCH   9  19
ATOM     19  N   UNL     1      86.499 161.679  30.090  1.00  0.00    -0.326 N 
ATOM     20  C   UNL     1      87.034 162.732  29.419  1.00  0.00    +0.221 C 
ATOM     21  O   UNL     1      86.486 163.825  29.343  1.00  0.00    -0.275 OA
ATOM     22  H   UNL     1      87.059 160.872  30.153  1.00  0.00    +0.169 HD
ATOM     23  C   UNL     1      88.372 162.472  28.795  1.00  0.00    +0.114 C 
ENDBRANCH   9  19
ENDBRANCH   7   8
BRANCH   7  24
ATOM     24  C   UNL     1      80.919 158.810  27.465  1.00  0.00    +0.167 C 
BRANCH  24  25
ATOM     25  S   UNL     1      80.484 159.950  26.163  1.00  0.00    +0.149 S 
ATOM     26  O   UNL     1      79.463 159.381  25.352  1.00  0.00    -0.229 OA
ATOM     27  O   UNL     1      81.674 160.394  25.488  1.00  0.00    -0.229 OA
ATOM     28  C   UNL     1      79.752 161.319  26.975  1.00  0.00    +0.158 C 
ENDBRANCH  24  25
ENDBRANCH   7  24
ENDBRANCH   1   7
BRANCH   3  29
ATOM     29  O   UNL     1      85.297 155.364  25.394  1.00  0.00    -0.490 OA
BRANCH  29  30
ATOM     30  C   UNL     1      84.781 155.392  24.056  1.00  0.00    +0.226 C 
ATOM     31  C   UNL     1      85.663 154.469  23.260  1.00  0.00    +0.049 C 
ENDBRANCH  29  30
ENDBRANCH   3  29
BRANCH   4  32
ATOM     32  O   UNL     1      84.792 153.631  27.236  1.00  0.00    -0.493 OA
ATOM     33  C   UNL     1      85.417 153.073  28.411  1.00  0.00    +0.278 C 
ENDBRANCH   4  32
TORSDOF 8
ENDMDL
