MODEL 1
REMARK VINA RESULT:    -9.597      0.000      0.000
REMARK INTER + INTRA:         -14.473
REMARK INTER:                 -13.524
REMARK INTRA:                  -0.949
REMARK UNBOUND:                -0.949
REMARK SMILES O=C(Nc1c(Cl)cncc1Cl)c1ccc(OC(F)F)c(OCC2CC2)c1
REMARK SMILES IDX 12 1 13 2 14 3 15 4 20 5 26 6 2 7 1 8 3 9 4 11 10 12 5 13
REMARK SMILES IDX 9 14 7 15 8 16 11 17 6 18 21 19 22 20 23 21 24 22 25 23
REMARK SMILES IDX 16 24 17 25 19 26 18 27
REMARK H PARENT 3 10
ROOT
ATOM      1  C   UNL     1       2.098   1.001  42.009  1.00  0.00    +0.044 A 
ATOM      2  C   UNL     1       0.986   1.443  42.739  1.00  0.00    +0.018 A 
ATOM      3  C   UNL     1      -0.299   1.406  42.210  1.00  0.00    +0.051 A 
ATOM      4  C   UNL     1      -0.521   0.916  40.922  1.00  0.00    +0.168 A 
ATOM      5  C   UNL     1       0.655   0.441  40.139  1.00  0.00    +0.162 A 
ATOM      6  C   UNL     1       1.921   0.508  40.730  1.00  0.00    +0.064 A 
ENDROOT
BRANCH   1   7
ATOM      7  C   UNL     1       3.505   1.033  42.571  1.00  0.00    +0.255 C 
ATOM      8  O   UNL     1       4.315   0.274  42.079  1.00  0.00    -0.269 OA
ATOM      9  N   UNL     1       3.831   1.883  43.558  1.00  0.00    -0.319 N 
ATOM     10  H   UNL     1       3.123   2.436  43.962  1.00  0.00    +0.170 HD
BRANCH   9  11
ATOM     11  C   UNL     1       5.101   2.007  44.016  1.00  0.00    +0.082 A 
ATOM     12  C   UNL     1       5.511   1.282  45.253  1.00  0.00    +0.084 A 
ATOM     13  C   UNL     1       6.176   2.829  43.394  1.00  0.00    +0.084 A 
ATOM     14  C   UNL     1       6.807   1.403  45.740  1.00  0.00    +0.133 A 
ATOM     15  C   UNL     1       7.436   2.862  43.978  1.00  0.00    +0.133 A 
ATOM     16  N   UNL     1       7.709   2.171  45.106  1.00  0.00    -0.261 NA
ATOM     17 Cl   UNL     1       4.398   0.290  46.096  1.00  0.00    -0.080 Cl
ATOM     18 Cl   UNL     1       5.888   3.777  41.996  1.00  0.00    -0.080 Cl
ENDBRANCH   9  11
ENDBRANCH   1   7
BRANCH   5  19
ATOM     19  O   UNL     1       0.471  -0.022  38.854  1.00  0.00    -0.489 OA
BRANCH  19  20
ATOM     20  C   UNL     1       1.502   0.042  37.865  1.00  0.00    +0.233 C 
BRANCH  20  21
ATOM     21  C   UNL     1       2.037  -1.324  37.570  1.00  0.00    +0.027 C 
ATOM     22  C   UNL     1       3.388  -1.952  37.433  1.00  0.00    +0.007 C 
ATOM     23  C   UNL     1       2.307  -2.125  36.335  1.00  0.00    +0.007 C 
ENDBRANCH  20  21
ENDBRANCH  19  20
ENDBRANCH   5  19
BRANCH   4  24
ATOM     24  O   UNL     1      -1.765   0.864  40.320  1.00  0.00    -0.431 OA
BRANCH  24  25
ATOM     25  C   UNL     1      -2.979   0.521  40.977  1.00  0.00    +0.542 C 
ATOM     26  F   UNL     1      -3.423   1.607  41.676  1.00  0.00    -0.167 F 
ATOM     27  F   UNL     1      -2.716  -0.541  41.803  1.00  0.00    -0.167 F 
ENDBRANCH  24  25
ENDBRANCH   4  24
TORSDOF 7
ENDMDL
MODEL 2
REMARK VINA RESULT:    -9.461      0.158      1.821
REMARK INTER + INTRA:         -14.281
REMARK INTER:                 -13.350
REMARK INTRA:                  -0.931
REMARK UNBOUND:                -0.949
REMARK SMILES O=C(Nc1c(Cl)cncc1Cl)c1ccc(OC(F)F)c(OCC2CC2)c1
REMARK SMILES IDX 12 1 13 2 14 3 15 4 20 5 26 6 2 7 1 8 3 9 4 11 10 12 5 13
REMARK SMILES IDX 9 14 7 15 8 16 11 17 6 18 21 19 22 20 23 21 24 22 25 23
REMARK SMILES IDX 16 24 17 25 19 26 18 27
REMARK H PARENT 3 10
ROOT
ATOM      1  C   UNL     1       2.050   1.006  42.058  1.00  0.00    +0.044 A 
ATOM      2  C   UNL     1       0.940   1.476  42.775  1.00  0.00    +0.018 A 
ATOM      3  C   UNL     1      -0.340   1.463  42.234  1.00  0.00    +0.051 A 
ATOM      4  C   UNL     1      -0.560   0.970  40.947  1.00  0.00    +0.168 A 
ATOM      5  C   UNL     1       0.612   0.465  40.177  1.00  0.00    +0.162 A 
ATOM      6  C   UNL     1       1.874   0.509  40.780  1.00  0.00    +0.064 A 
ENDROOT
BRANCH   1   7
ATOM      7  C   UNL     1       3.452   1.012  42.633  1.00  0.00    +0.255 C 
ATOM      8  O   UNL     1       4.246   0.224  42.161  1.00  0.00    -0.269 OA
ATOM      9  N   UNL     1       3.789   1.869  43.609  1.00  0.00    -0.319 N 
ATOM     10  H   UNL     1       3.092   2.446  43.997  1.00  0.00    +0.170 HD
BRANCH   9  11
ATOM     11  C   UNL     1       5.058   1.968  44.078  1.00  0.00    +0.082 A 
ATOM     12  C   UNL     1       6.020   2.891  43.412  1.00  0.00    +0.084 A 
ATOM     13  C   UNL     1       5.620   1.215  45.234  1.00  0.00    +0.084 A 
ATOM     14  C   UNL     1       7.325   3.000  43.877  1.00  0.00    +0.133 A 
ATOM     15  C   UNL     1       6.945   1.418  45.603  1.00  0.00    +0.133 A 
ATOM     16  N   UNL     1       7.740   2.276  44.931  1.00  0.00    -0.261 NA
ATOM     17 Cl   UNL     1       5.538   3.835  42.066  1.00  0.00    -0.080 Cl
ATOM     18 Cl   UNL     1       4.688   0.066  46.099  1.00  0.00    -0.080 Cl
ENDBRANCH   9  11
ENDBRANCH   1   7
BRANCH   5  19
ATOM     19  O   UNL     1       0.431  -0.002  38.894  1.00  0.00    -0.489 OA
BRANCH  19  20
ATOM     20  C   UNL     1       1.465   0.054  37.908  1.00  0.00    +0.233 C 
BRANCH  20  21
ATOM     21  C   UNL     1       2.081  -1.296  37.711  1.00  0.00    +0.027 C 
ATOM     22  C   UNL     1       3.467  -1.850  37.613  1.00  0.00    +0.007 C 
ATOM     23  C   UNL     1       2.397  -2.167  36.537  1.00  0.00    +0.007 C 
ENDBRANCH  20  21
ENDBRANCH  19  20
ENDBRANCH   5  19
BRANCH   4  24
ATOM     24  O   UNL     1      -1.800   0.940  40.333  1.00  0.00    -0.431 OA
BRANCH  24  25
ATOM     25  C   UNL     1      -3.021   0.589  40.972  1.00  0.00    +0.542 C 
ATOM     26  F   UNL     1      -3.450   1.652  41.714  1.00  0.00    -0.167 F 
ATOM     27  F   UNL     1      -2.779  -0.509  41.754  1.00  0.00    -0.167 F 
ENDBRANCH  24  25
ENDBRANCH   4  24
TORSDOF 7
ENDMDL
MODEL 3
REMARK VINA RESULT:    -9.209      2.407      4.484
REMARK INTER + INTRA:         -13.926
REMARK INTER:                 -12.879
REMARK INTRA:                  -1.048
REMARK UNBOUND:                -0.949
REMARK SMILES O=C(Nc1c(Cl)cncc1Cl)c1ccc(OC(F)F)c(OCC2CC2)c1
REMARK SMILES IDX 12 1 13 2 14 3 15 4 20 5 26 6 2 7 1 8 3 9 4 11 10 12 5 13
REMARK SMILES IDX 9 14 7 15 8 16 11 17 6 18 21 19 22 20 23 21 24 22 25 23
REMARK SMILES IDX 16 24 17 25 19 26 18 27
REMARK H PARENT 3 10
ROOT
ATOM      1  C   UNL     1       3.881   0.265  40.998  1.00  0.00    +0.044 A 
ATOM      2  C   UNL     1       4.466  -0.470  39.957  1.00  0.00    +0.018 A 
ATOM      3  C   UNL     1       3.724  -0.919  38.870  1.00  0.00    +0.051 A 
ATOM      4  C   UNL     1       2.359  -0.642  38.782  1.00  0.00    +0.168 A 
ATOM      5  C   UNL     1       1.728   0.141  39.882  1.00  0.00    +0.162 A 
ATOM      6  C   UNL     1       2.531   0.560  40.947  1.00  0.00    +0.064 A 
ENDROOT
BRANCH   1   7
ATOM      7  C   UNL     1       4.675   0.762  42.189  1.00  0.00    +0.255 C 
ATOM      8  O   UNL     1       5.509   0.009  42.650  1.00  0.00    -0.269 OA
ATOM      9  N   UNL     1       4.467   1.991  42.687  1.00  0.00    -0.319 N 
ATOM     10  H   UNL     1       3.739   2.538  42.314  1.00  0.00    +0.170 HD
BRANCH   9  11
ATOM     11  C   UNL     1       5.226   2.503  43.688  1.00  0.00    +0.082 A 
ATOM     12  C   UNL     1       6.420   3.331  43.357  1.00  0.00    +0.084 A 
ATOM     13  C   UNL     1       4.987   2.313  45.146  1.00  0.00    +0.084 A 
ATOM     14  C   UNL     1       7.211   3.858  44.371  1.00  0.00    +0.133 A 
ATOM     15  C   UNL     1       5.852   2.900  46.063  1.00  0.00    +0.133 A 
ATOM     16  N   UNL     1       6.913   3.631  45.662  1.00  0.00    -0.261 NA
ATOM     17 Cl   UNL     1       6.841   3.649  41.728  1.00  0.00    -0.080 Cl
ATOM     18 Cl   UNL     1       3.694   1.351  45.729  1.00  0.00    -0.080 Cl
ENDBRANCH   9  11
ENDBRANCH   1   7
BRANCH   5  19
ATOM     19  O   UNL     1       0.376   0.406  39.837  1.00  0.00    -0.489 OA
BRANCH  19  20
ATOM     20  C   UNL     1      -0.331   0.960  40.950  1.00  0.00    +0.233 C 
BRANCH  20  21
ATOM     21  C   UNL     1      -1.790   0.638  40.862  1.00  0.00    +0.027 C 
ATOM     22  C   UNL     1      -3.070   1.287  41.284  1.00  0.00    +0.007 C 
ATOM     23  C   UNL     1      -2.754  -0.185  41.656  1.00  0.00    +0.007 C 
ENDBRANCH  20  21
ENDBRANCH  19  20
ENDBRANCH   5  19
BRANCH   4  24
ATOM     24  O   UNL     1       1.550  -1.068  37.743  1.00  0.00    -0.431 OA
BRANCH  24  25
ATOM     25  C   UNL     1       1.411  -0.409  36.491  1.00  0.00    +0.542 C 
ATOM     26  F   UNL     1       2.595  -0.493  35.815  1.00  0.00    -0.167 F 
ATOM     27  F   UNL     1       1.064   0.892  36.745  1.00  0.00    -0.167 F 
ENDBRANCH  24  25
ENDBRANCH   4  24
TORSDOF 7
ENDMDL
MODEL 4
REMARK VINA RESULT:    -9.064      2.352      4.133
REMARK INTER + INTRA:         -13.722
REMARK INTER:                 -12.787
REMARK INTRA:                  -0.935
REMARK UNBOUND:                -0.949
REMARK SMILES O=C(Nc1c(Cl)cncc1Cl)c1ccc(OC(F)F)c(OCC2CC2)c1
REMARK SMILES IDX 12 1 13 2 14 3 15 4 20 5 26 6 2 7 1 8 3 9 4 11 10 12 5 13
REMARK SMILES IDX 9 14 7 15 8 16 11 17 6 18 21 19 22 20 23 21 24 22 25 23
REMARK SMILES IDX 16 24 17 25 19 26 18 27
REMARK H PARENT 3 10
ROOT
ATOM      1  C   UNL     1       3.710   0.095  40.738  1.00  0.00    +0.044 A 
ATOM      2  C   UNL     1       4.195  -0.655  39.658  1.00  0.00    +0.018 A 
ATOM      3  C   UNL     1       3.374  -1.033  38.601  1.00  0.00    +0.051 A 
ATOM      4  C   UNL     1       2.028  -0.666  38.585  1.00  0.00    +0.168 A 
ATOM      5  C   UNL     1       1.503   0.134  39.728  1.00  0.00    +0.162 A 
ATOM      6  C   UNL     1       2.382   0.479  40.760  1.00  0.00    +0.064 A 
ENDROOT
BRANCH   1   7
ATOM      7  C   UNL     1       4.592   0.516  41.897  1.00  0.00    +0.255 C 
ATOM      8  O   UNL     1       5.569  -0.169  42.125  1.00  0.00    -0.269 OA
ATOM      9  N   UNL     1       4.303   1.611  42.618  1.00  0.00    -0.319 N 
ATOM     10  H   UNL     1       3.468   2.097  42.428  1.00  0.00    +0.170 HD
BRANCH   9  11
ATOM     11  C   UNL     1       5.121   2.069  43.597  1.00  0.00    +0.082 A 
ATOM     12  C   UNL     1       4.926   1.602  44.999  1.00  0.00    +0.084 A 
ATOM     13  C   UNL     1       6.239   3.037  43.416  1.00  0.00    +0.084 A 
ATOM     14  C   UNL     1       5.752   2.067  46.015  1.00  0.00    +0.133 A 
ATOM     15  C   UNL     1       6.997   3.420  44.516  1.00  0.00    +0.133 A 
ATOM     16  N   UNL     1       6.738   2.942  45.751  1.00  0.00    -0.261 NA
ATOM     17 Cl   UNL     1       3.685   0.487  45.385  1.00  0.00    -0.080 Cl
ATOM     18 Cl   UNL     1       6.591   3.730  41.888  1.00  0.00    -0.080 Cl
ENDBRANCH   9  11
ENDBRANCH   1   7
BRANCH   5  19
ATOM     19  O   UNL     1       0.171   0.488  39.755  1.00  0.00    -0.489 OA
BRANCH  19  20
ATOM     20  C   UNL     1      -0.469   0.963  40.941  1.00  0.00    +0.233 C 
BRANCH  20  21
ATOM     21  C   UNL     1      -1.935   0.661  40.907  1.00  0.00    +0.027 C 
ATOM     22  C   UNL     1      -3.187   1.310  41.407  1.00  0.00    +0.007 C 
ATOM     23  C   UNL     1      -2.874  -0.177  41.716  1.00  0.00    +0.007 C 
ENDBRANCH  20  21
ENDBRANCH  19  20
ENDBRANCH   5  19
BRANCH   4  24
ATOM     24  O   UNL     1       1.144  -1.018  37.581  1.00  0.00    -0.431 OA
BRANCH  24  25
ATOM     25  C   UNL     1       1.424  -0.964  36.188  1.00  0.00    +0.542 C 
ATOM     26  F   UNL     1       0.298  -0.561  35.528  1.00  0.00    -0.167 F 
ATOM     27  F   UNL     1       1.820  -2.216  35.796  1.00  0.00    -0.167 F 
ENDBRANCH  24  25
ENDBRANCH   4  24
TORSDOF 7
ENDMDL
MODEL 5
REMARK VINA RESULT:    -8.486      2.761      3.915
REMARK INTER + INTRA:         -12.908
REMARK INTER:                 -11.868
REMARK INTRA:                  -1.040
REMARK UNBOUND:                -0.949
REMARK SMILES O=C(Nc1c(Cl)cncc1Cl)c1ccc(OC(F)F)c(OCC2CC2)c1
REMARK SMILES IDX 12 1 13 2 14 3 15 4 20 5 26 6 2 7 1 8 3 9 4 11 10 12 5 13
REMARK SMILES IDX 9 14 7 15 8 16 11 17 6 18 21 19 22 20 23 21 24 22 25 23
REMARK SMILES IDX 16 24 17 25 19 26 18 27
REMARK H PARENT 3 10
ROOT
ATOM      1  C   UNL     1       3.057   0.261  40.856  1.00  0.00    +0.044 A 
ATOM      2  C   UNL     1       1.715   0.600  40.632  1.00  0.00    +0.018 A 
ATOM      3  C   UNL     1       1.036   0.188  39.491  1.00  0.00    +0.051 A 
ATOM      4  C   UNL     1       1.679  -0.590  38.527  1.00  0.00    +0.168 A 
ATOM      5  C   UNL     1       3.105  -0.959  38.757  1.00  0.00    +0.162 A 
ATOM      6  C   UNL     1       3.729  -0.510  39.925  1.00  0.00    +0.064 A 
ENDROOT
BRANCH   1   7
ATOM      7  C   UNL     1       3.812   0.701  42.094  1.00  0.00    +0.255 C 
ATOM      8  O   UNL     1       4.340  -0.168  42.758  1.00  0.00    -0.269 OA
ATOM      9  N   UNL     1       3.898   2.000  42.419  1.00  0.00    -0.319 N 
ATOM     10  H   UNL     1       3.403   2.659  41.881  1.00  0.00    +0.170 HD
BRANCH   9  11
ATOM     11  C   UNL     1       4.645   2.436  43.464  1.00  0.00    +0.082 A 
ATOM     12  C   UNL     1       6.019   2.961  43.219  1.00  0.00    +0.084 A 
ATOM     13  C   UNL     1       4.225   2.442  44.893  1.00  0.00    +0.084 A 
ATOM     14  C   UNL     1       6.800   3.406  44.279  1.00  0.00    +0.133 A 
ATOM     15  C   UNL     1       5.100   2.920  45.861  1.00  0.00    +0.133 A 
ATOM     16  N   UNL     1       6.331   3.372  45.538  1.00  0.00    -0.261 NA
ATOM     17 Cl   UNL     1       6.661   3.026  41.632  1.00  0.00    -0.080 Cl
ATOM     18 Cl   UNL     1       2.702   1.831  45.386  1.00  0.00    -0.080 Cl
ENDBRANCH   9  11
ENDBRANCH   1   7
BRANCH   5  19
ATOM     19  O   UNL     1       3.774  -1.703  37.810  1.00  0.00    -0.489 OA
BRANCH  19  20
ATOM     20  C   UNL     1       4.807  -2.630  38.157  1.00  0.00    +0.233 C 
BRANCH  20  21
ATOM     21  C   UNL     1       4.636  -3.915  37.409  1.00  0.00    +0.027 C 
ATOM     22  C   UNL     1       3.563  -4.554  36.586  1.00  0.00    +0.007 C 
ATOM     23  C   UNL     1       4.233  -5.312  37.761  1.00  0.00    +0.007 C 
ENDBRANCH  20  21
ENDBRANCH  19  20
ENDBRANCH   5  19
BRANCH   4  24
ATOM     24  O   UNL     1       1.078  -1.024  37.359  1.00  0.00    -0.431 OA
BRANCH  24  25
ATOM     25  C   UNL     1       1.148  -0.355  36.106  1.00  0.00    +0.542 C 
ATOM     26  F   UNL     1       2.088  -0.972  35.330  1.00  0.00    -0.167 F 
ATOM     27  F   UNL     1       1.472   0.953  36.352  1.00  0.00    -0.167 F 
ENDBRANCH  24  25
ENDBRANCH   4  24
TORSDOF 7
ENDMDL
MODEL 6
REMARK VINA RESULT:    -8.432      2.585      3.722
REMARK INTER + INTRA:         -12.831
REMARK INTER:                 -11.745
REMARK INTRA:                  -1.086
REMARK UNBOUND:                -0.949
REMARK SMILES O=C(Nc1c(Cl)cncc1Cl)c1ccc(OC(F)F)c(OCC2CC2)c1
REMARK SMILES IDX 12 1 13 2 14 3 15 4 20 5 26 6 2 7 1 8 3 9 4 11 10 12 5 13
REMARK SMILES IDX 9 14 7 15 8 16 11 17 6 18 21 19 22 20 23 21 24 22 25 23
REMARK SMILES IDX 16 24 17 25 19 26 18 27
REMARK H PARENT 3 10
ROOT
ATOM      1  C   UNL     1       4.858   2.417  42.586  1.00  0.00    +0.044 A 
ATOM      2  C   UNL     1       3.912   2.829  43.535  1.00  0.00    +0.018 A 
ATOM      3  C   UNL     1       2.645   2.263  43.600  1.00  0.00    +0.051 A 
ATOM      4  C   UNL     1       2.275   1.251  42.712  1.00  0.00    +0.168 A 
ATOM      5  C   UNL     1       3.274   0.803  41.701  1.00  0.00    +0.162 A 
ATOM      6  C   UNL     1       4.532   1.416  41.689  1.00  0.00    +0.064 A 
ENDROOT
BRANCH   1   7
ATOM      7  C   UNL     1       6.245   3.023  42.503  1.00  0.00    +0.255 C 
ATOM      8  O   UNL     1       6.365   4.039  41.849  1.00  0.00    -0.269 OA
ATOM      9  N   UNL     1       7.280   2.459  43.145  1.00  0.00    -0.319 N 
ATOM     10  H   UNL     1       7.140   1.604  43.612  1.00  0.00    +0.170 HD
BRANCH   9  11
ATOM     11  C   UNL     1       8.511   3.027  43.171  1.00  0.00    +0.082 A 
ATOM     12  C   UNL     1       9.570   2.534  42.245  1.00  0.00    +0.084 A 
ATOM     13  C   UNL     1       8.940   4.135  44.070  1.00  0.00    +0.084 A 
ATOM     14  C   UNL     1      10.838   3.102  42.263  1.00  0.00    +0.133 A 
ATOM     15  C   UNL     1      10.240   4.619  43.986  1.00  0.00    +0.133 A 
ATOM     16  N   UNL     1      11.131   4.101  43.113  1.00  0.00    -0.261 NA
ATOM     17 Cl   UNL     1       9.246   1.264  41.142  1.00  0.00    -0.080 Cl
ATOM     18 Cl   UNL     1       7.884   4.804  45.242  1.00  0.00    -0.080 Cl
ENDBRANCH   9  11
ENDBRANCH   1   7
BRANCH   5  19
ATOM     19  O   UNL     1       2.930  -0.175  40.793  1.00  0.00    -0.489 OA
BRANCH  19  20
ATOM     20  C   UNL     1       3.768  -0.520  39.687  1.00  0.00    +0.233 C 
BRANCH  20  21
ATOM     21  C   UNL     1       2.964  -0.634  38.430  1.00  0.00    +0.027 C 
ATOM     22  C   UNL     1       1.518  -0.789  38.080  1.00  0.00    +0.007 C 
ATOM     23  C   UNL     1       2.594  -1.739  37.492  1.00  0.00    +0.007 C 
ENDBRANCH  20  21
ENDBRANCH  19  20
ENDBRANCH   5  19
BRANCH   4  24
ATOM     24  O   UNL     1       1.029   0.651  42.701  1.00  0.00    -0.431 OA
BRANCH  24  25
ATOM     25  C   UNL     1      -0.098   1.119  41.970  1.00  0.00    +0.542 C 
ATOM     26  F   UNL     1       0.146   0.958  40.636  1.00  0.00    -0.167 F 
ATOM     27  F   UNL     1      -0.285   2.437  42.295  1.00  0.00    -0.167 F 
ENDBRANCH  24  25
ENDBRANCH   4  24
TORSDOF 7
ENDMDL
MODEL 7
REMARK VINA RESULT:    -8.408      3.307      5.788
REMARK INTER + INTRA:         -12.797
REMARK INTER:                 -11.783
REMARK INTRA:                  -1.014
REMARK UNBOUND:                -0.949
REMARK SMILES O=C(Nc1c(Cl)cncc1Cl)c1ccc(OC(F)F)c(OCC2CC2)c1
REMARK SMILES IDX 12 1 13 2 14 3 15 4 20 5 26 6 2 7 1 8 3 9 4 11 10 12 5 13
REMARK SMILES IDX 9 14 7 15 8 16 11 17 6 18 21 19 22 20 23 21 24 22 25 23
REMARK SMILES IDX 16 24 17 25 19 26 18 27
REMARK H PARENT 3 10
ROOT
ATOM      1  C   UNL     1       2.391   0.198  40.377  1.00  0.00    +0.044 A 
ATOM      2  C   UNL     1       1.326   0.127  39.469  1.00  0.00    +0.018 A 
ATOM      3  C   UNL     1       0.035   0.501  39.823  1.00  0.00    +0.051 A 
ATOM      4  C   UNL     1      -0.238   0.969  41.109  1.00  0.00    +0.168 A 
ATOM      5  C   UNL     1       0.888   1.051  42.082  1.00  0.00    +0.162 A 
ATOM      6  C   UNL     1       2.162   0.657  41.661  1.00  0.00    +0.064 A 
ENDROOT
BRANCH   1   7
ATOM      7  C   UNL     1       3.805  -0.205  40.006  1.00  0.00    +0.255 C 
ATOM      8  O   UNL     1       4.710   0.417  40.524  1.00  0.00    -0.269 OA
ATOM      9  N   UNL     1       4.028  -1.219  39.156  1.00  0.00    -0.319 N 
ATOM     10  H   UNL     1       3.259  -1.652  38.719  1.00  0.00    +0.170 HD
BRANCH   9  11
ATOM     11  C   UNL     1       5.277  -1.668  38.878  1.00  0.00    +0.082 A 
ATOM     12  C   UNL     1       5.906  -1.334  37.569  1.00  0.00    +0.084 A 
ATOM     13  C   UNL     1       6.123  -2.502  39.778  1.00  0.00    +0.084 A 
ATOM     14  C   UNL     1       7.183  -1.791  37.266  1.00  0.00    +0.133 A 
ATOM     15  C   UNL     1       7.390  -2.891  39.358  1.00  0.00    +0.133 A 
ATOM     16  N   UNL     1       7.870  -2.540  38.147  1.00  0.00    -0.261 NA
ATOM     17 Cl   UNL     1       5.072  -0.383  36.415  1.00  0.00    -0.080 Cl
ATOM     18 Cl   UNL     1       5.559  -3.034  41.306  1.00  0.00    -0.080 Cl
ENDBRANCH   9  11
ENDBRANCH   1   7
BRANCH   5  19
ATOM     19  O   UNL     1       0.644   1.483  43.368  1.00  0.00    -0.489 OA
BRANCH  19  20
ATOM     20  C   UNL     1       1.324   0.933  44.500  1.00  0.00    +0.233 C 
BRANCH  20  21
ATOM     21  C   UNL     1       2.380   1.873  44.989  1.00  0.00    +0.027 C 
ATOM     22  C   UNL     1       3.482   2.678  44.375  1.00  0.00    +0.007 C 
ATOM     23  C   UNL     1       3.750   1.733  45.575  1.00  0.00    +0.007 C 
ENDBRANCH  20  21
ENDBRANCH  19  20
ENDBRANCH   5  19
BRANCH   4  24
ATOM     24  O   UNL     1      -1.498   1.343  41.543  1.00  0.00    -0.431 OA
BRANCH  24  25
ATOM     25  C   UNL     1      -2.709   0.673  41.216  1.00  0.00    +0.542 C 
ATOM     26  F   UNL     1      -3.761   1.439  41.629  1.00  0.00    -0.167 F 
ATOM     27  F   UNL     1      -2.691  -0.545  41.845  1.00  0.00    -0.167 F 
ENDBRANCH  24  25
ENDBRANCH   4  24
TORSDOF 7
ENDMDL
MODEL 8
REMARK VINA RESULT:    -8.309      3.085      4.905
REMARK INTER + INTRA:         -12.658
REMARK INTER:                 -11.696
REMARK INTRA:                  -0.962
REMARK UNBOUND:                -0.949
REMARK SMILES O=C(Nc1c(Cl)cncc1Cl)c1ccc(OC(F)F)c(OCC2CC2)c1
REMARK SMILES IDX 12 1 13 2 14 3 15 4 20 5 26 6 2 7 1 8 3 9 4 11 10 12 5 13
REMARK SMILES IDX 9 14 7 15 8 16 11 17 6 18 21 19 22 20 23 21 24 22 25 23
REMARK SMILES IDX 16 24 17 25 19 26 18 27
REMARK H PARENT 3 10
ROOT
ATOM      1  C   UNL     1       2.628   0.202  40.489  1.00  0.00    +0.044 A 
ATOM      2  C   UNL     1       1.602   0.142  39.535  1.00  0.00    +0.018 A 
ATOM      3  C   UNL     1       0.299   0.523  39.836  1.00  0.00    +0.051 A 
ATOM      4  C   UNL     1      -0.026   0.985  41.112  1.00  0.00    +0.168 A 
ATOM      5  C   UNL     1       1.057   1.054  42.133  1.00  0.00    +0.162 A 
ATOM      6  C   UNL     1       2.346   0.655  41.765  1.00  0.00    +0.064 A 
ENDROOT
BRANCH   1   7
ATOM      7  C   UNL     1       4.054  -0.208  40.178  1.00  0.00    +0.255 C 
ATOM      8  O   UNL     1       4.311  -0.476  39.021  1.00  0.00    -0.269 OA
ATOM      9  N   UNL     1       4.983  -0.249  41.145  1.00  0.00    -0.319 N 
ATOM     10  H   UNL     1       4.708  -0.080  42.076  1.00  0.00    +0.170 HD
BRANCH   9  11
ATOM     11  C   UNL     1       6.287  -0.517  40.885  1.00  0.00    +0.082 A 
ATOM     12  C   UNL     1       7.283   0.592  40.902  1.00  0.00    +0.084 A 
ATOM     13  C   UNL     1       6.854  -1.856  40.563  1.00  0.00    +0.084 A 
ATOM     14  C   UNL     1       8.622   0.335  40.632  1.00  0.00    +0.133 A 
ATOM     15  C   UNL     1       8.216  -1.980  40.317  1.00  0.00    +0.133 A 
ATOM     16  N   UNL     1       9.039  -0.912  40.352  1.00  0.00    -0.261 NA
ATOM     17 Cl   UNL     1       6.801   2.197  41.254  1.00  0.00    -0.080 Cl
ATOM     18 Cl   UNL     1       5.862  -3.249  40.445  1.00  0.00    -0.080 Cl
ENDBRANCH   9  11
ENDBRANCH   1   7
BRANCH   5  19
ATOM     19  O   UNL     1       0.761   1.480  43.409  1.00  0.00    -0.489 OA
BRANCH  19  20
ATOM     20  C   UNL     1       1.537   1.089  44.545  1.00  0.00    +0.233 C 
BRANCH  20  21
ATOM     21  C   UNL     1       2.568   2.127  44.862  1.00  0.00    +0.027 C 
ATOM     22  C   UNL     1       3.764   2.710  44.180  1.00  0.00    +0.007 C 
ATOM     23  C   UNL     1       3.853   2.160  45.627  1.00  0.00    +0.007 C 
ENDBRANCH  20  21
ENDBRANCH  19  20
ENDBRANCH   5  19
BRANCH   4  24
ATOM     24  O   UNL     1      -1.301   1.364  41.493  1.00  0.00    -0.431 OA
BRANCH  24  25
ATOM     25  C   UNL     1      -2.504   0.734  41.069  1.00  0.00    +0.542 C 
ATOM     26  F   UNL     1      -3.562   1.522  41.423  1.00  0.00    -0.167 F 
ATOM     27  F   UNL     1      -2.563  -0.495  41.673  1.00  0.00    -0.167 F 
ENDBRANCH  24  25
ENDBRANCH   4  24
TORSDOF 7
ENDMDL
MODEL 9
REMARK VINA RESULT:    -8.253      1.851      2.456
REMARK INTER + INTRA:         -12.579
REMARK INTER:                 -11.615
REMARK INTRA:                  -0.964
REMARK UNBOUND:                -0.949
REMARK SMILES O=C(Nc1c(Cl)cncc1Cl)c1ccc(OC(F)F)c(OCC2CC2)c1
REMARK SMILES IDX 12 1 13 2 14 3 15 4 20 5 26 6 2 7 1 8 3 9 4 11 10 12 5 13
REMARK SMILES IDX 9 14 7 15 8 16 11 17 6 18 21 19 22 20 23 21 24 22 25 23
REMARK SMILES IDX 16 24 17 25 19 26 18 27
REMARK H PARENT 3 10
ROOT
ATOM      1  C   UNL     1       3.000   1.637  42.294  1.00  0.00    +0.044 A 
ATOM      2  C   UNL     1       2.142   1.886  43.375  1.00  0.00    +0.018 A 
ATOM      3  C   UNL     1       0.795   1.547  43.334  1.00  0.00    +0.051 A 
ATOM      4  C   UNL     1       0.253   0.937  42.202  1.00  0.00    +0.168 A 
ATOM      5  C   UNL     1       1.157   0.665  41.048  1.00  0.00    +0.162 A 
ATOM      6  C   UNL     1       2.502   1.033  41.155  1.00  0.00    +0.064 A 
ENDROOT
BRANCH   1   7
ATOM      7  C   UNL     1       4.472   1.999  42.323  1.00  0.00    +0.255 C 
ATOM      8  O   UNL     1       4.755   3.172  42.182  1.00  0.00    -0.269 OA
ATOM      9  N   UNL     1       5.407   1.056  42.516  1.00  0.00    -0.319 N 
ATOM     10  H   UNL     1       5.127   0.113  42.566  1.00  0.00    +0.170 HD
BRANCH   9  11
ATOM     11  C   UNL     1       6.723   1.357  42.644  1.00  0.00    +0.082 A 
ATOM     12  C   UNL     1       7.627   1.220  41.467  1.00  0.00    +0.084 A 
ATOM     13  C   UNL     1       7.392   1.825  43.890  1.00  0.00    +0.084 A 
ATOM     14  C   UNL     1       8.980   1.520  41.583  1.00  0.00    +0.133 A 
ATOM     15  C   UNL     1       8.755   2.096  43.873  1.00  0.00    +0.133 A 
ATOM     16  N   UNL     1       9.492   1.937  42.754  1.00  0.00    -0.261 NA
ATOM     17 Cl   UNL     1       7.022   0.694  39.954  1.00  0.00    -0.080 Cl
ATOM     18 Cl   UNL     1       6.533   1.996  45.363  1.00  0.00    -0.080 Cl
ENDBRANCH   9  11
ENDBRANCH   1   7
BRANCH   5  19
ATOM     19  O   UNL     1       0.645   0.089  39.906  1.00  0.00    -0.489 OA
BRANCH  19  20
ATOM     20  C   UNL     1       1.188   0.351  38.609  1.00  0.00    +0.233 C 
BRANCH  20  21
ATOM     21  C   UNL     1       1.892  -0.858  38.078  1.00  0.00    +0.027 C 
ATOM     22  C   UNL     1       3.295  -1.379  38.073  1.00  0.00    +0.007 C 
ATOM     23  C   UNL     1       2.475  -1.266  36.762  1.00  0.00    +0.007 C 
ENDBRANCH  20  21
ENDBRANCH  19  20
ENDBRANCH   5  19
BRANCH   4  24
ATOM     24  O   UNL     1      -1.080   0.586  42.078  1.00  0.00    -0.431 OA
BRANCH  24  25
ATOM     25  C   UNL     1      -2.021   1.234  41.230  1.00  0.00    +0.542 C 
ATOM     26  F   UNL     1      -2.283   2.476  41.732  1.00  0.00    -0.167 F 
ATOM     27  F   UNL     1      -3.147   0.455  41.191  1.00  0.00    -0.167 F 
ENDBRANCH  24  25
ENDBRANCH   4  24
TORSDOF 7
ENDMDL
