MODEL 1
REMARK VINA RESULT:    -9.488      0.000      0.000
REMARK INTER + INTRA:         -14.356
REMARK INTER:                 -13.370
REMARK INTRA:                  -0.986
REMARK UNBOUND:                -0.986
REMARK SMILES O=C(Nc1c(Cl)cncc1Cl)c1ccc(OC(F)F)c(OCC2CC2)c1
REMARK SMILES IDX 12 1 13 2 14 3 15 4 20 5 26 6 2 7 1 8 3 9 4 11 5 12 10 13
REMARK SMILES IDX 7 14 9 15 8 16 6 17 11 18 21 19 22 20 23 21 24 22 25 23
REMARK SMILES IDX 16 24 17 25 18 26 19 27
REMARK H PARENT 3 10
ROOT
ATOM      1  C   UNL     1      13.976  28.210  53.239  1.00  0.00    +0.044 A 
ATOM      2  C   UNL     1      13.851  27.068  52.439  1.00  0.00    +0.018 A 
ATOM      3  C   UNL     1      13.616  27.194  51.059  1.00  0.00    +0.051 A 
ATOM      4  C   UNL     1      13.534  28.471  50.472  1.00  0.00    +0.168 A 
ATOM      5  C   UNL     1      13.645  29.599  51.265  1.00  0.00    +0.162 A 
ATOM      6  C   UNL     1      13.871  29.462  52.641  1.00  0.00    +0.064 A 
ENDROOT
BRANCH   1   7
ATOM      7  C   UNL     1      14.209  28.166  54.699  1.00  0.00    +0.255 C 
ATOM      8  O   UNL     1      14.818  29.110  55.215  1.00  0.00    -0.269 OA
ATOM      9  N   UNL     1      13.791  27.125  55.434  1.00  0.00    -0.319 N 
ATOM     10  H   UNL     1      13.343  26.385  54.965  1.00  0.00    +0.170 HD
BRANCH   9  11
ATOM     11  C   UNL     1      13.949  27.012  56.848  1.00  0.00    +0.082 A 
ATOM     12  C   UNL     1      15.050  26.376  57.425  1.00  0.00    +0.084 A 
ATOM     13  C   UNL     1      12.952  27.487  57.707  1.00  0.00    +0.084 A 
ATOM     14  C   UNL     1      15.140  26.253  58.814  1.00  0.00    +0.133 A 
ATOM     15  C   UNL     1      13.088  27.349  59.094  1.00  0.00    +0.133 A 
ATOM     16  N   UNL     1      14.168  26.747  59.603  1.00  0.00    -0.261 NA
ATOM     17 Cl   UNL     1      16.308  25.766  56.425  1.00  0.00    -0.080 Cl
ATOM     18 Cl   UNL     1      11.557  28.263  57.041  1.00  0.00    -0.080 Cl
ENDBRANCH   9  11
ENDBRANCH   1   7
BRANCH   5  19
ATOM     19  O   UNL     1      13.551  30.832  50.676  1.00  0.00    -0.489 OA
BRANCH  19  20
ATOM     20  C   UNL     1      12.960  31.865  51.458  1.00  0.00    +0.233 C 
BRANCH  20  21
ATOM     21  C   UNL     1      13.887  33.026  51.650  1.00  0.00    +0.027 C 
ATOM     22  C   UNL     1      13.961  34.460  51.414  1.00  0.00    +0.007 C 
ATOM     23  C   UNL     1      14.461  33.837  52.716  1.00  0.00    +0.007 C 
ENDBRANCH  20  21
ENDBRANCH  19  20
ENDBRANCH   5  19
BRANCH   4  24
ATOM     24  O   UNL     1      13.312  28.684  49.139  1.00  0.00    -0.431 OA
BRANCH  24  25
ATOM     25  C   UNL     1      14.037  27.968  48.147  1.00  0.00    +0.542 C 
ATOM     26  F   UNL     1      13.516  26.754  48.039  1.00  0.00    -0.167 F 
ATOM     27  F   UNL     1      15.330  27.918  48.471  1.00  0.00    -0.167 F 
ENDBRANCH  24  25
ENDBRANCH   4  24
TORSDOF 7
ENDMDL
MODEL 2
REMARK VINA RESULT:    -9.467      0.083      1.764
REMARK INTER + INTRA:         -14.327
REMARK INTER:                 -13.391
REMARK INTRA:                  -0.936
REMARK UNBOUND:                -0.986
REMARK SMILES O=C(Nc1c(Cl)cncc1Cl)c1ccc(OC(F)F)c(OCC2CC2)c1
REMARK SMILES IDX 12 1 13 2 14 3 15 4 20 5 26 6 2 7 1 8 3 9 4 11 5 12 10 13
REMARK SMILES IDX 7 14 9 15 8 16 6 17 11 18 21 19 22 20 23 21 24 22 25 23
REMARK SMILES IDX 16 24 17 25 18 26 19 27
REMARK H PARENT 3 10
ROOT
ATOM      1  C   UNL     1      13.939  28.195  53.224  1.00  0.00    +0.044 A 
ATOM      2  C   UNL     1      13.845  27.052  52.423  1.00  0.00    +0.018 A 
ATOM      3  C   UNL     1      13.628  27.174  51.039  1.00  0.00    +0.051 A 
ATOM      4  C   UNL     1      13.533  28.450  50.451  1.00  0.00    +0.168 A 
ATOM      5  C   UNL     1      13.613  29.579  51.247  1.00  0.00    +0.162 A 
ATOM      6  C   UNL     1      13.820  29.446  52.626  1.00  0.00    +0.064 A 
ENDROOT
BRANCH   1   7
ATOM      7  C   UNL     1      14.150  28.154  54.688  1.00  0.00    +0.255 C 
ATOM      8  O   UNL     1      14.776  29.086  55.207  1.00  0.00    -0.269 OA
ATOM      9  N   UNL     1      13.696  27.128  55.423  1.00  0.00    -0.319 N 
ATOM     10  H   UNL     1      13.237  26.396  54.952  1.00  0.00    +0.170 HD
BRANCH   9  11
ATOM     11  C   UNL     1      13.832  27.020  56.839  1.00  0.00    +0.082 A 
ATOM     12  C   UNL     1      12.902  27.579  57.721  1.00  0.00    +0.084 A 
ATOM     13  C   UNL     1      14.956  26.399  57.393  1.00  0.00    +0.084 A 
ATOM     14  C   UNL     1      13.101  27.484  59.100  1.00  0.00    +0.133 A 
ATOM     15  C   UNL     1      15.109  26.320  58.783  1.00  0.00    +0.133 A 
ATOM     16  N   UNL     1      14.185  26.855  59.589  1.00  0.00    -0.261 NA
ATOM     17 Cl   UNL     1      11.501  28.362  57.105  1.00  0.00    -0.080 Cl
ATOM     18 Cl   UNL     1      16.147  25.711  56.345  1.00  0.00    -0.080 Cl
ENDBRANCH   9  11
ENDBRANCH   1   7
BRANCH   5  19
ATOM     19  O   UNL     1      13.507  30.811  50.656  1.00  0.00    -0.489 OA
BRANCH  19  20
ATOM     20  C   UNL     1      12.928  31.844  51.447  1.00  0.00    +0.233 C 
BRANCH  20  21
ATOM     21  C   UNL     1      13.872  32.989  51.653  1.00  0.00    +0.027 C 
ATOM     22  C   UNL     1      13.997  34.412  51.371  1.00  0.00    +0.007 C 
ATOM     23  C   UNL     1      14.402  33.826  52.722  1.00  0.00    +0.007 C 
ENDBRANCH  20  21
ENDBRANCH  19  20
ENDBRANCH   5  19
BRANCH   4  24
ATOM     24  O   UNL     1      13.327  28.660  49.115  1.00  0.00    -0.431 OA
BRANCH  24  25
ATOM     25  C   UNL     1      14.031  27.908  48.133  1.00  0.00    +0.542 C 
ATOM     26  F   UNL     1      13.492  26.699  48.063  1.00  0.00    -0.167 F 
ATOM     27  F   UNL     1      15.326  27.849  48.444  1.00  0.00    -0.167 F 
ENDBRANCH  24  25
ENDBRANCH   4  24
TORSDOF 7
ENDMDL
MODEL 3
REMARK VINA RESULT:    -8.974      2.407      4.473
REMARK INTER + INTRA:         -13.632
REMARK INTER:                 -12.498
REMARK INTRA:                  -1.134
REMARK UNBOUND:                -0.986
REMARK SMILES O=C(Nc1c(Cl)cncc1Cl)c1ccc(OC(F)F)c(OCC2CC2)c1
REMARK SMILES IDX 12 1 13 2 14 3 15 4 20 5 26 6 2 7 1 8 3 9 4 11 5 12 10 13
REMARK SMILES IDX 7 14 9 15 8 16 6 17 11 18 21 19 22 20 23 21 24 22 25 23
REMARK SMILES IDX 16 24 17 25 18 26 19 27
REMARK H PARENT 3 10
ROOT
ATOM      1  C   UNL     1      14.134  30.429  54.264  1.00  0.00    +0.044 A 
ATOM      2  C   UNL     1      14.280  31.817  54.377  1.00  0.00    +0.018 A 
ATOM      3  C   UNL     1      14.177  32.633  53.237  1.00  0.00    +0.051 A 
ATOM      4  C   UNL     1      13.898  32.059  51.982  1.00  0.00    +0.168 A 
ATOM      5  C   UNL     1      13.767  30.686  51.870  1.00  0.00    +0.162 A 
ATOM      6  C   UNL     1      13.880  29.881  53.011  1.00  0.00    +0.064 A 
ENDROOT
BRANCH   1   7
ATOM      7  C   UNL     1      14.242  29.499  55.409  1.00  0.00    +0.255 C 
ATOM      8  O   UNL     1      15.060  29.769  56.297  1.00  0.00    -0.269 OA
ATOM      9  N   UNL     1      13.494  28.387  55.470  1.00  0.00    -0.319 N 
ATOM     10  H   UNL     1      12.887  28.204  54.718  1.00  0.00    +0.170 HD
BRANCH   9  11
ATOM     11  C   UNL     1      13.515  27.451  56.547  1.00  0.00    +0.082 A 
ATOM     12  C   UNL     1      12.743  27.624  57.699  1.00  0.00    +0.084 A 
ATOM     13  C   UNL     1      14.376  26.349  56.504  1.00  0.00    +0.084 A 
ATOM     14  C   UNL     1      12.830  26.702  58.744  1.00  0.00    +0.133 A 
ATOM     15  C   UNL     1      14.423  25.446  57.573  1.00  0.00    +0.133 A 
ATOM     16  N   UNL     1      13.655  25.643  58.650  1.00  0.00    -0.261 NA
ATOM     17 Cl   UNL     1      11.669  28.960  57.817  1.00  0.00    -0.080 Cl
ATOM     18 Cl   UNL     1      15.368  26.102  55.110  1.00  0.00    -0.080 Cl
ENDBRANCH   9  11
ENDBRANCH   1   7
BRANCH   5  19
ATOM     19  O   UNL     1      13.507  30.147  50.638  1.00  0.00    -0.489 OA
BRANCH  19  20
ATOM     20  C   UNL     1      13.555  28.726  50.546  1.00  0.00    +0.233 C 
BRANCH  20  21
ATOM     21  C   UNL     1      13.983  28.266  49.186  1.00  0.00    +0.027 C 
ATOM     22  C   UNL     1      15.115  27.647  48.510  1.00  0.00    +0.007 C 
ATOM     23  C   UNL     1      13.676  27.233  48.204  1.00  0.00    +0.007 C 
ENDBRANCH  20  21
ENDBRANCH  19  20
ENDBRANCH   5  19
BRANCH   4  24
ATOM     24  O   UNL     1      13.778  32.778  50.825  1.00  0.00    -0.431 OA
BRANCH  24  25
ATOM     25  C   UNL     1      12.682  33.661  50.616  1.00  0.00    +0.542 C 
ATOM     26  F   UNL     1      13.025  34.867  51.046  1.00  0.00    -0.167 F 
ATOM     27  F   UNL     1      11.600  33.205  51.247  1.00  0.00    -0.167 F 
ENDBRANCH  24  25
ENDBRANCH   4  24
TORSDOF 7
ENDMDL
MODEL 4
REMARK VINA RESULT:    -8.971      2.427      4.178
REMARK INTER + INTRA:         -13.627
REMARK INTER:                 -12.517
REMARK INTRA:                  -1.110
REMARK UNBOUND:                -0.986
REMARK SMILES O=C(Nc1c(Cl)cncc1Cl)c1ccc(OC(F)F)c(OCC2CC2)c1
REMARK SMILES IDX 12 1 13 2 14 3 15 4 20 5 26 6 2 7 1 8 3 9 4 11 5 12 10 13
REMARK SMILES IDX 7 14 9 15 8 16 6 17 11 18 21 19 22 20 23 21 24 22 25 23
REMARK SMILES IDX 16 24 17 25 18 26 19 27
REMARK H PARENT 3 10
ROOT
ATOM      1  C   UNL     1      14.179  30.488  54.234  1.00  0.00    +0.044 A 
ATOM      2  C   UNL     1      14.300  31.878  54.344  1.00  0.00    +0.018 A 
ATOM      3  C   UNL     1      14.185  32.690  53.203  1.00  0.00    +0.051 A 
ATOM      4  C   UNL     1      13.919  32.109  51.948  1.00  0.00    +0.168 A 
ATOM      5  C   UNL     1      13.813  30.734  51.838  1.00  0.00    +0.162 A 
ATOM      6  C   UNL     1      13.938  29.933  52.981  1.00  0.00    +0.064 A 
ENDROOT
BRANCH   1   7
ATOM      7  C   UNL     1      14.302  29.561  55.381  1.00  0.00    +0.255 C 
ATOM      8  O   UNL     1      15.150  29.820  56.243  1.00  0.00    -0.269 OA
ATOM      9  N   UNL     1      13.535  28.465  55.469  1.00  0.00    -0.319 N 
ATOM     10  H   UNL     1      12.903  28.290  54.735  1.00  0.00    +0.170 HD
BRANCH   9  11
ATOM     11  C   UNL     1      13.569  27.534  56.550  1.00  0.00    +0.082 A 
ATOM     12  C   UNL     1      14.346  26.373  56.508  1.00  0.00    +0.084 A 
ATOM     13  C   UNL     1      12.758  27.730  57.672  1.00  0.00    +0.084 A 
ATOM     14  C   UNL     1      14.313  25.470  57.573  1.00  0.00    +0.133 A 
ATOM     15  C   UNL     1      12.764  26.802  58.721  1.00  0.00    +0.133 A 
ATOM     16  N   UNL     1      13.536  25.712  58.645  1.00  0.00    -0.261 NA
ATOM     17 Cl   UNL     1      15.361  26.070  55.154  1.00  0.00    -0.080 Cl
ATOM     18 Cl   UNL     1      11.761  29.140  57.763  1.00  0.00    -0.080 Cl
ENDBRANCH   9  11
ENDBRANCH   1   7
BRANCH   5  19
ATOM     19  O   UNL     1      13.565  30.188  50.607  1.00  0.00    -0.489 OA
BRANCH  19  20
ATOM     20  C   UNL     1      13.579  28.766  50.530  1.00  0.00    +0.233 C 
BRANCH  20  21
ATOM     21  C   UNL     1      13.969  28.281  49.167  1.00  0.00    +0.027 C 
ATOM     22  C   UNL     1      15.088  27.668  48.466  1.00  0.00    +0.007 C 
ATOM     23  C   UNL     1      13.649  27.218  48.222  1.00  0.00    +0.007 C 
ENDBRANCH  20  21
ENDBRANCH  19  20
ENDBRANCH   5  19
BRANCH   4  24
ATOM     24  O   UNL     1      13.788  32.824  50.789  1.00  0.00    -0.431 OA
BRANCH  24  25
ATOM     25  C   UNL     1      12.748  33.781  50.627  1.00  0.00    +0.542 C 
ATOM     26  F   UNL     1      13.187  34.956  51.055  1.00  0.00    -0.167 F 
ATOM     27  F   UNL     1      11.660  33.393  51.293  1.00  0.00    -0.167 F 
ENDBRANCH  24  25
ENDBRANCH   4  24
TORSDOF 7
ENDMDL
MODEL 5
REMARK VINA RESULT:    -8.373      3.198      4.793
REMARK INTER + INTRA:         -12.785
REMARK INTER:                 -11.593
REMARK INTRA:                  -1.192
REMARK UNBOUND:                -0.986
REMARK SMILES O=C(Nc1c(Cl)cncc1Cl)c1ccc(OC(F)F)c(OCC2CC2)c1
REMARK SMILES IDX 12 1 13 2 14 3 15 4 20 5 26 6 2 7 1 8 3 9 4 11 5 12 10 13
REMARK SMILES IDX 7 14 9 15 8 16 6 17 11 18 21 19 22 20 23 21 24 22 25 23
REMARK SMILES IDX 16 24 17 25 18 26 19 27
REMARK H PARENT 3 10
ROOT
ATOM      1  C   UNL     1      13.902  30.257  53.224  1.00  0.00    +0.044 A 
ATOM      2  C   UNL     1      13.617  30.765  51.951  1.00  0.00    +0.018 A 
ATOM      3  C   UNL     1      13.511  29.896  50.851  1.00  0.00    +0.051 A 
ATOM      4  C   UNL     1      13.664  28.509  51.032  1.00  0.00    +0.168 A 
ATOM      5  C   UNL     1      13.960  28.009  52.288  1.00  0.00    +0.162 A 
ATOM      6  C   UNL     1      14.071  28.884  53.376  1.00  0.00    +0.064 A 
ENDROOT
BRANCH   1   7
ATOM      7  C   UNL     1      14.045  31.102  54.430  1.00  0.00    +0.255 C 
ATOM      8  O   UNL     1      13.517  32.221  54.416  1.00  0.00    -0.269 OA
ATOM      9  N   UNL     1      14.743  30.677  55.493  1.00  0.00    -0.319 N 
ATOM     10  H   UNL     1      15.173  29.793  55.433  1.00  0.00    +0.170 HD
BRANCH   9  11
ATOM     11  C   UNL     1      14.910  31.413  56.703  1.00  0.00    +0.082 A 
ATOM     12  C   UNL     1      15.977  32.295  56.898  1.00  0.00    +0.084 A 
ATOM     13  C   UNL     1      14.029  31.218  57.772  1.00  0.00    +0.084 A 
ATOM     14  C   UNL     1      16.121  32.961  58.117  1.00  0.00    +0.133 A 
ATOM     15  C   UNL     1      14.208  31.915  58.973  1.00  0.00    +0.133 A 
ATOM     16  N   UNL     1      15.235  32.761  59.110  1.00  0.00    -0.261 NA
ATOM     17 Cl   UNL     1      17.099  32.575  55.626  1.00  0.00    -0.080 Cl
ATOM     18 Cl   UNL     1      12.704  30.122  57.590  1.00  0.00    -0.080 Cl
ENDBRANCH   9  11
ENDBRANCH   1   7
BRANCH   5  19
ATOM     19  O   UNL     1      14.117  26.657  52.440  1.00  0.00    -0.489 OA
BRANCH  19  20
ATOM     20  C   UNL     1      15.194  26.233  53.270  1.00  0.00    +0.233 C 
BRANCH  20  21
ATOM     21  C   UNL     1      14.712  25.661  54.568  1.00  0.00    +0.027 C 
ATOM     22  C   UNL     1      15.189  25.344  55.906  1.00  0.00    +0.007 C 
ATOM     23  C   UNL     1      13.824  25.990  55.676  1.00  0.00    +0.007 C 
ENDBRANCH  20  21
ENDBRANCH  19  20
ENDBRANCH   5  19
BRANCH   4  24
ATOM     24  O   UNL     1      13.574  27.593  50.019  1.00  0.00    -0.431 OA
BRANCH  24  25
ATOM     25  C   UNL     1      14.056  27.889  48.713  1.00  0.00    +0.542 C 
ATOM     26  F   UNL     1      13.519  27.028  47.861  1.00  0.00    -0.167 F 
ATOM     27  F   UNL     1      15.388  27.832  48.693  1.00  0.00    -0.167 F 
ENDBRANCH  24  25
ENDBRANCH   4  24
TORSDOF 7
ENDMDL
MODEL 6
REMARK VINA RESULT:    -8.252      1.961      2.392
REMARK INTER + INTRA:         -12.614
REMARK INTER:                 -11.587
REMARK INTRA:                  -1.027
REMARK UNBOUND:                -0.986
REMARK SMILES O=C(Nc1c(Cl)cncc1Cl)c1ccc(OC(F)F)c(OCC2CC2)c1
REMARK SMILES IDX 12 1 13 2 14 3 15 4 20 5 26 6 2 7 1 8 3 9 4 11 5 12 10 13
REMARK SMILES IDX 7 14 9 15 8 16 6 17 11 18 21 19 22 20 23 21 24 22 25 23
REMARK SMILES IDX 16 24 17 25 18 26 19 27
REMARK H PARENT 3 10
ROOT
ATOM      1  C   UNL     1      13.669  28.476  53.369  1.00  0.00    +0.044 A 
ATOM      2  C   UNL     1      13.688  27.290  52.626  1.00  0.00    +0.018 A 
ATOM      3  C   UNL     1      13.652  27.335  51.222  1.00  0.00    +0.051 A 
ATOM      4  C   UNL     1      13.625  28.575  50.557  1.00  0.00    +0.168 A 
ATOM      5  C   UNL     1      13.593  29.747  51.293  1.00  0.00    +0.162 A 
ATOM      6  C   UNL     1      13.621  29.691  52.692  1.00  0.00    +0.064 A 
ENDROOT
BRANCH   1   7
ATOM      7  C   UNL     1      13.690  28.517  54.848  1.00  0.00    +0.255 C 
ATOM      8  O   UNL     1      14.267  27.599  55.442  1.00  0.00    -0.269 OA
ATOM      9  N   UNL     1      13.082  29.505  55.520  1.00  0.00    -0.319 N 
ATOM     10  H   UNL     1      12.606  30.189  54.996  1.00  0.00    +0.170 HD
BRANCH   9  11
ATOM     11  C   UNL     1      13.074  29.637  56.941  1.00  0.00    +0.082 A 
ATOM     12  C   UNL     1      12.089  29.047  57.738  1.00  0.00    +0.084 A 
ATOM     13  C   UNL     1      14.033  30.431  57.579  1.00  0.00    +0.084 A 
ATOM     14  C   UNL     1      12.099  29.239  59.121  1.00  0.00    +0.133 A 
ATOM     15  C   UNL     1      14.009  30.588  58.970  1.00  0.00    +0.133 A 
ATOM     16  N   UNL     1      13.056  29.992  59.695  1.00  0.00    -0.261 NA
ATOM     17 Cl   UNL     1      10.879  28.063  57.015  1.00  0.00    -0.080 Cl
ATOM     18 Cl   UNL     1      15.260  31.201  56.636  1.00  0.00    -0.080 Cl
ENDBRANCH   9  11
ENDBRANCH   1   7
BRANCH   5  19
ATOM     19  O   UNL     1      13.555  30.943  50.626  1.00  0.00    -0.489 OA
BRANCH  19  20
ATOM     20  C   UNL     1      12.540  31.859  51.025  1.00  0.00    +0.233 C 
BRANCH  20  21
ATOM     21  C   UNL     1      13.111  33.100  51.640  1.00  0.00    +0.027 C 
ATOM     22  C   UNL     1      14.299  33.565  52.342  1.00  0.00    +0.007 C 
ATOM     23  C   UNL     1      13.633  34.404  51.252  1.00  0.00    +0.007 C 
ENDBRANCH  20  21
ENDBRANCH  19  20
ENDBRANCH   5  19
BRANCH   4  24
ATOM     24  O   UNL     1      13.592  28.711  49.196  1.00  0.00    -0.431 OA
BRANCH  24  25
ATOM     25  C   UNL     1      14.308  27.819  48.349  1.00  0.00    +0.542 C 
ATOM     26  F   UNL     1      13.579  26.726  48.176  1.00  0.00    -0.167 F 
ATOM     27  F   UNL     1      15.496  27.535  48.883  1.00  0.00    -0.167 F 
ENDBRANCH  24  25
ENDBRANCH   4  24
TORSDOF 7
ENDMDL
MODEL 7
REMARK VINA RESULT:    -8.065      2.705      3.475
REMARK INTER + INTRA:         -12.350
REMARK INTER:                 -11.356
REMARK INTRA:                  -0.995
REMARK UNBOUND:                -0.986
REMARK SMILES O=C(Nc1c(Cl)cncc1Cl)c1ccc(OC(F)F)c(OCC2CC2)c1
REMARK SMILES IDX 12 1 13 2 14 3 15 4 20 5 26 6 2 7 1 8 3 9 4 11 5 12 10 13
REMARK SMILES IDX 7 14 9 15 8 16 6 17 11 18 21 19 22 20 23 21 24 22 25 23
REMARK SMILES IDX 16 24 17 25 18 26 19 27
REMARK H PARENT 3 10
ROOT
ATOM      1  C   UNL     1      14.033  30.031  53.615  1.00  0.00    +0.044 A 
ATOM      2  C   UNL     1      13.625  29.581  52.354  1.00  0.00    +0.018 A 
ATOM      3  C   UNL     1      13.410  30.500  51.312  1.00  0.00    +0.051 A 
ATOM      4  C   UNL     1      13.632  31.873  51.526  1.00  0.00    +0.168 A 
ATOM      5  C   UNL     1      14.022  32.318  52.776  1.00  0.00    +0.162 A 
ATOM      6  C   UNL     1      14.226  31.395  53.811  1.00  0.00    +0.064 A 
ENDROOT
BRANCH   1   7
ATOM      7  C   UNL     1      14.267  29.134  54.769  1.00  0.00    +0.255 C 
ATOM      8  O   UNL     1      15.311  29.284  55.413  1.00  0.00    -0.269 OA
ATOM      9  N   UNL     1      13.384  28.177  55.089  1.00  0.00    -0.319 N 
ATOM     10  H   UNL     1      12.588  28.080  54.518  1.00  0.00    +0.170 HD
BRANCH   9  11
ATOM     11  C   UNL     1      13.516  27.288  56.197  1.00  0.00    +0.082 A 
ATOM     12  C   UNL     1      14.202  26.074  56.100  1.00  0.00    +0.084 A 
ATOM     13  C   UNL     1      12.893  27.583  57.414  1.00  0.00    +0.084 A 
ATOM     14  C   UNL     1      14.268  25.217  57.201  1.00  0.00    +0.133 A 
ATOM     15  C   UNL     1      12.993  26.697  58.494  1.00  0.00    +0.133 A 
ATOM     16  N   UNL     1      13.673  25.554  58.360  1.00  0.00    -0.261 NA
ATOM     17 Cl   UNL     1      14.986  25.649  54.630  1.00  0.00    -0.080 Cl
ATOM     18 Cl   UNL     1      12.013  29.062  57.579  1.00  0.00    -0.080 Cl
ENDBRANCH   9  11
ENDBRANCH   1   7
BRANCH   5  19
ATOM     19  O   UNL     1      14.222  33.660  52.967  1.00  0.00    -0.489 OA
BRANCH  19  20
ATOM     20  C   UNL     1      15.208  34.023  53.928  1.00  0.00    +0.233 C 
BRANCH  20  21
ATOM     21  C   UNL     1      15.935  35.275  53.541  1.00  0.00    +0.027 C 
ATOM     22  C   UNL     1      17.285  35.765  53.299  1.00  0.00    +0.007 C 
ATOM     23  C   UNL     1      16.117  36.156  52.394  1.00  0.00    +0.007 C 
ENDBRANCH  20  21
ENDBRANCH  19  20
ENDBRANCH   5  19
BRANCH   4  24
ATOM     24  O   UNL     1      13.451  32.833  50.568  1.00  0.00    -0.431 OA
BRANCH  24  25
ATOM     25  C   UNL     1      12.188  33.463  50.387  1.00  0.00    +0.542 C 
ATOM     26  F   UNL     1      12.291  34.730  50.762  1.00  0.00    -0.167 F 
ATOM     27  F   UNL     1      11.251  32.821  51.084  1.00  0.00    -0.167 F 
ENDBRANCH  24  25
ENDBRANCH   4  24
TORSDOF 7
ENDMDL
MODEL 8
REMARK VINA RESULT:    -7.986      2.551      3.692
REMARK INTER + INTRA:         -12.240
REMARK INTER:                 -11.301
REMARK INTRA:                  -0.938
REMARK UNBOUND:                -0.986
REMARK SMILES O=C(Nc1c(Cl)cncc1Cl)c1ccc(OC(F)F)c(OCC2CC2)c1
REMARK SMILES IDX 12 1 13 2 14 3 15 4 20 5 26 6 2 7 1 8 3 9 4 11 5 12 10 13
REMARK SMILES IDX 7 14 9 15 8 16 6 17 11 18 21 19 22 20 23 21 24 22 25 23
REMARK SMILES IDX 16 24 17 25 18 26 19 27
REMARK H PARENT 3 10
ROOT
ATOM      1  C   UNL     1      12.926  27.902  56.148  1.00  0.00    +0.044 A 
ATOM      2  C   UNL     1      13.161  26.621  55.635  1.00  0.00    +0.018 A 
ATOM      3  C   UNL     1      13.744  26.464  54.366  1.00  0.00    +0.051 A 
ATOM      4  C   UNL     1      14.121  27.596  53.619  1.00  0.00    +0.168 A 
ATOM      5  C   UNL     1      13.876  28.862  54.122  1.00  0.00    +0.162 A 
ATOM      6  C   UNL     1      13.286  29.007  55.384  1.00  0.00    +0.064 A 
ENDROOT
BRANCH   1   7
ATOM      7  C   UNL     1      12.303  28.154  57.466  1.00  0.00    +0.255 C 
ATOM      8  O   UNL     1      11.085  28.363  57.498  1.00  0.00    -0.269 OA
ATOM      9  N   UNL     1      13.041  28.178  58.586  1.00  0.00    -0.319 N 
ATOM     10  H   UNL     1      14.012  28.042  58.496  1.00  0.00    +0.170 HD
BRANCH   9  11
ATOM     11  C   UNL     1      12.521  28.387  59.898  1.00  0.00    +0.082 A 
ATOM     12  C   UNL     1      12.425  29.660  60.466  1.00  0.00    +0.084 A 
ATOM     13  C   UNL     1      12.148  27.296  60.690  1.00  0.00    +0.084 A 
ATOM     14  C   UNL     1      11.948  29.811  61.771  1.00  0.00    +0.133 A 
ATOM     15  C   UNL     1      11.668  27.495  61.989  1.00  0.00    +0.133 A 
ATOM     16  N   UNL     1      11.578  28.733  62.487  1.00  0.00    -0.261 NA
ATOM     17 Cl   UNL     1      12.871  31.044  59.549  1.00  0.00    -0.080 Cl
ATOM     18 Cl   UNL     1      12.269  25.698  60.041  1.00  0.00    -0.080 Cl
ENDBRANCH   9  11
ENDBRANCH   1   7
BRANCH   5  19
ATOM     19  O   UNL     1      14.240  29.951  53.374  1.00  0.00    -0.489 OA
BRANCH  19  20
ATOM     20  C   UNL     1      13.961  31.228  53.938  1.00  0.00    +0.233 C 
BRANCH  20  21
ATOM     21  C   UNL     1      13.710  32.265  52.886  1.00  0.00    +0.027 C 
ATOM     22  C   UNL     1      14.217  33.550  52.427  1.00  0.00    +0.007 C 
ATOM     23  C   UNL     1      13.824  32.448  51.444  1.00  0.00    +0.007 C 
ENDBRANCH  20  21
ENDBRANCH  19  20
ENDBRANCH   5  19
BRANCH   4  24
ATOM     24  O   UNL     1      14.696  27.535  52.379  1.00  0.00    -0.431 OA
BRANCH  24  25
ATOM     25  C   UNL     1      13.902  27.505  51.199  1.00  0.00    +0.542 C 
ATOM     26  F   UNL     1      13.595  28.751  50.866  1.00  0.00    -0.167 F 
ATOM     27  F   UNL     1      12.810  26.768  51.401  1.00  0.00    -0.167 F 
ENDBRANCH  24  25
ENDBRANCH   4  24
TORSDOF 7
ENDMDL
MODEL 9
REMARK VINA RESULT:    -7.909      2.578      3.686
REMARK INTER + INTRA:         -12.131
REMARK INTER:                 -11.075
REMARK INTRA:                  -1.055
REMARK UNBOUND:                -0.986
REMARK SMILES O=C(Nc1c(Cl)cncc1Cl)c1ccc(OC(F)F)c(OCC2CC2)c1
REMARK SMILES IDX 12 1 13 2 14 3 15 4 20 5 26 6 2 7 1 8 3 9 4 11 5 12 10 13
REMARK SMILES IDX 7 14 9 15 8 16 6 17 11 18 21 19 22 20 23 21 24 22 25 23
REMARK SMILES IDX 16 24 17 25 18 26 19 27
REMARK H PARENT 3 10
ROOT
ATOM      1  C   UNL     1      13.031  27.859  56.334  1.00  0.00    +0.044 A 
ATOM      2  C   UNL     1      13.123  26.589  55.753  1.00  0.00    +0.018 A 
ATOM      3  C   UNL     1      13.695  26.434  54.478  1.00  0.00    +0.051 A 
ATOM      4  C   UNL     1      14.202  27.554  53.793  1.00  0.00    +0.168 A 
ATOM      5  C   UNL     1      14.099  28.811  54.362  1.00  0.00    +0.162 A 
ATOM      6  C   UNL     1      13.520  28.955  55.630  1.00  0.00    +0.064 A 
ENDROOT
BRANCH   1   7
ATOM      7  C   UNL     1      12.431  28.111  57.662  1.00  0.00    +0.255 C 
ATOM      8  O   UNL     1      11.219  28.353  57.712  1.00  0.00    -0.269 OA
ATOM      9  N   UNL     1      13.183  28.098  58.773  1.00  0.00    -0.319 N 
ATOM     10  H   UNL     1      14.148  27.936  58.670  1.00  0.00    +0.170 HD
BRANCH   9  11
ATOM     11  C   UNL     1      12.684  28.304  60.094  1.00  0.00    +0.082 A 
ATOM     12  C   UNL     1      12.132  27.267  60.851  1.00  0.00    +0.084 A 
ATOM     13  C   UNL     1      12.672  29.587  60.650  1.00  0.00    +0.084 A 
ATOM     14  C   UNL     1      11.618  27.526  62.124  1.00  0.00    +0.133 A 
ATOM     15  C   UNL     1      12.154  29.798  61.934  1.00  0.00    +0.133 A 
ATOM     16  N   UNL     1      11.650  28.773  62.628  1.00  0.00    -0.261 NA
ATOM     17 Cl   UNL     1      12.111  25.666  60.224  1.00  0.00    -0.080 Cl
ATOM     18 Cl   UNL     1      13.323  30.909  59.745  1.00  0.00    -0.080 Cl
ENDBRANCH   9  11
ENDBRANCH   1   7
BRANCH   5  19
ATOM     19  O   UNL     1      14.589  29.890  53.674  1.00  0.00    -0.489 OA
BRANCH  19  20
ATOM     20  C   UNL     1      14.089  31.166  54.058  1.00  0.00    +0.233 C 
BRANCH  20  21
ATOM     21  C   UNL     1      13.692  31.994  52.873  1.00  0.00    +0.027 C 
ATOM     22  C   UNL     1      14.010  33.257  52.224  1.00  0.00    +0.007 C 
ATOM     23  C   UNL     1      13.776  31.980  51.418  1.00  0.00    +0.007 C 
ENDBRANCH  20  21
ENDBRANCH  19  20
ENDBRANCH   5  19
BRANCH   4  24
ATOM     24  O   UNL     1      14.777  27.494  52.553  1.00  0.00    -0.431 OA
BRANCH  24  25
ATOM     25  C   UNL     1      13.981  27.448  51.374  1.00  0.00    +0.542 C 
ATOM     26  F   UNL     1      13.767  28.690  50.962  1.00  0.00    -0.167 F 
ATOM     27  F   UNL     1      12.837  26.809  51.618  1.00  0.00    -0.167 F 
ENDBRANCH  24  25
ENDBRANCH   4  24
TORSDOF 7
ENDMDL
